15
   time=    0.000 (fs)  Energy= -545.39242 (Hartree) Cell_Vectors= -4.20546 -0.00576  0.00951 -2.10777 -3.63912  0.00783 -0.00324 -0.00179 30.07408
  Se   -2.11459 -1.21948 16.52081   0.00009  0.00003 -0.02204  0.00000  0.00000  0.00000  -0.25822  0.00000  0.00000  0.00000
  Se   -2.09637 -1.21147  3.54001  -0.00009 -0.00003  0.02206  0.00000  0.00000  0.00000  -0.25821  0.00000  0.00000  0.00000
  Bi   -2.10004 -1.21247 22.00568  -0.00004 -0.00006 -0.01081  0.00000  0.00000  0.00000   0.48634  0.00000  0.00000  0.00000
  Bi   -2.11410 -1.22031 28.12935   0.00007  0.00007  0.01071  0.00000  0.00000  0.00000   0.48634  0.00000  0.00000  0.00000
  Se   -4.21094 -2.43104 20.06092  -0.00000 -0.00000  0.00002  0.00000  0.00000  0.00000  -0.45626  0.00000  0.00000  0.00000
  Se   -4.22007 -2.43503 26.55127   0.00009  0.00003 -0.02204  0.00000  0.00000  0.00000  -0.25822  0.00000  0.00000  0.00000
  Bi   -4.20234 -2.42622  1.96204  -0.00007 -0.00007 -0.01073  0.00000  0.00000  0.00000   0.48635  0.00000  0.00000  0.00000
  Bi   -4.21621 -2.43399  8.08565   0.00005  0.00008  0.01077  0.00000  0.00000  0.00000   0.48634  0.00000  0.00000  0.00000
  Se   -2.11096 -3.64080 30.08184  -0.00000 -0.00000  0.00001  0.00000  0.00000  0.00000  -0.45626  0.00000  0.00000  0.00000
  Se   -0.00901 -0.00384  6.49021   0.00009  0.00003 -0.02203  0.00000  0.00000  0.00000  -0.25822  0.00000  0.00000  0.00000
  Bi   -6.30773 -3.64170 11.99240  -0.00008 -0.00006 -0.01075  0.00000  0.00000  0.00000   0.48635  0.00000  0.00000  0.00000
  Se   -6.30734 -3.64261 23.60103  -0.00008 -0.00003  0.02205  0.00000  0.00000  0.00000  -0.25821  0.00000  0.00000  0.00000
  Bi   -0.00857 -0.00474 18.09889   0.00010  0.00006  0.01072  0.00000  0.00000  0.00000   0.48634  0.00000  0.00000  0.00000
  Se   -4.20179 -2.42696 13.57038  -0.00008 -0.00003  0.02205  0.00000  0.00000  0.00000  -0.25821  0.00000  0.00000  0.00000
  Se   -2.10535 -1.21538 10.03028  -0.00000 -0.00000 -0.00000  0.00000  0.00000  0.00000  -0.45626  0.00000  0.00000  0.00000
15
   time=    0.500 (fs)  Energy= -545.41167 (Hartree) Cell_Vectors= -4.26110  0.02657  0.00980 -2.10761 -3.70348  0.00815 -0.00329 -0.00182 30.08057
  Se   -2.13316 -1.23018 16.51723  -0.00173 -0.00102 -0.01445  0.00000  0.00000  0.00000  -0.25637  0.00000  0.00000  0.00000
  Se   -2.11481 -1.22215  3.54833   0.00173  0.00103  0.01446  0.00000  0.00000  0.00000  -0.25636  0.00000  0.00000  0.00000
  Bi   -2.11852 -1.22316 22.00703  -0.00102 -0.00060 -0.00623  0.00000  0.00000  0.00000   0.48285  0.00000  0.00000  0.00000
  Bi   -2.13267 -1.23102 28.13919   0.00087  0.00057  0.00613  0.00000  0.00000  0.00000   0.48285  0.00000  0.00000  0.00000
  Se   -4.24795 -2.45242 20.06566   0.00000  0.00000  0.00005  0.00000  0.00000  0.00000  -0.45298  0.00000  0.00000  0.00000
  Se   -4.25714 -2.45642 26.55006  -0.00173 -0.00103 -0.01445  0.00000  0.00000  0.00000  -0.25637  0.00000  0.00000  0.00000
  Bi   -4.23928 -2.44757  1.95929  -0.00087 -0.00054 -0.00614  0.00000  0.00000  0.00000   0.48286  0.00000  0.00000  0.00000
  Bi   -4.25325 -2.45536  8.09139   0.00101  0.00058  0.00622  0.00000  0.00000  0.00000   0.48285  0.00000  0.00000  0.00000
  Se   -2.11084 -3.70520 30.08865  -0.00000 -0.00000  0.00001  0.00000  0.00000  0.00000  -0.45298  0.00000  0.00000  0.00000
  Se   -0.00907 -0.00385  6.48426  -0.00173 -0.00102 -0.01447  0.00000  0.00000  0.00000  -0.25636  0.00000  0.00000  0.00000
  Bi   -6.36318 -3.67374 11.99201  -0.00091 -0.00055 -0.00612  0.00000  0.00000  0.00000   0.48285  0.00000  0.00000  0.00000
  Se   -6.36279 -3.67467 23.61408   0.00173  0.00102  0.01448  0.00000  0.00000  0.00000  -0.25636  0.00000  0.00000  0.00000
  Bi   -0.00863 -0.00477 18.10637   0.00093  0.00054  0.00611  0.00000  0.00000  0.00000   0.48285  0.00000  0.00000  0.00000
  Se   -4.23873 -2.44833 13.58106   0.00173  0.00102  0.01446  0.00000  0.00000  0.00000  -0.25636  0.00000  0.00000  0.00000
  Se   -2.12386 -1.22607 10.03265  -0.00001 -0.00000 -0.00004  0.00000  0.00000  0.00000  -0.45298  0.00000  0.00000  0.00000
15
   time=    1.000 (fs)  Energy= -545.41735 (Hartree) Cell_Vectors= -4.29206  0.03709  0.00691 -2.11398 -3.73557  0.00526 -0.00266 -0.00146 30.08453
  Se   -2.14589 -1.23753 16.51265  -0.00188 -0.00111 -0.01094  0.00000  0.00000  0.00000  -0.25501  0.00000  0.00000  0.00000
  Se   -2.12655 -1.22894  3.55169   0.00187  0.00110  0.01094  0.00000  0.00000  0.00000  -0.25501  0.00000  0.00000  0.00000
  Bi   -2.13081 -1.23026 22.00592  -0.00088 -0.00051 -0.00404  0.00000  0.00000  0.00000   0.48045  0.00000  0.00000  0.00000
  Bi   -2.14428 -1.23771 28.14300   0.00086  0.00050  0.00410  0.00000  0.00000  0.00000   0.48045  0.00000  0.00000  0.00000
  Se   -4.27242 -2.46655 20.06445   0.00001  0.00001  0.00000  0.00000  0.00000  0.00000  -0.45088  0.00000  0.00000  0.00000
  Se   -4.28211 -2.47084 26.54486  -0.00187 -0.00110 -0.01093  0.00000  0.00000  0.00000  -0.25501  0.00000  0.00000  0.00000
  Bi   -4.26438 -2.46208  1.95364  -0.00086 -0.00051 -0.00411  0.00000  0.00000  0.00000   0.48046  0.00000  0.00000  0.00000
  Bi   -4.27767 -2.46946  8.09066   0.00087  0.00050  0.00404  0.00000  0.00000  0.00000   0.48044  0.00000  0.00000  0.00000
  Se   -2.11659 -3.73693 30.08971  -0.00000 -0.00000  0.00000  0.00000  0.00000  0.00000  -0.45089  0.00000  0.00000  0.00000
  Se   -0.00957 -0.00413  6.48029  -0.00186 -0.00110 -0.01090  0.00000  0.00000  0.00000  -0.25501  0.00000  0.00000  0.00000
  Bi   -6.40054 -3.69531 11.98576  -0.00084 -0.00051 -0.00401  0.00000  0.00000  0.00000   0.48045  0.00000  0.00000  0.00000
  Se   -6.39900 -3.69559 23.61622   0.00187  0.00111  0.01091  0.00000  0.00000  0.00000  -0.25500  0.00000  0.00000  0.00000
  Bi   -0.00798 -0.00440 18.11078   0.00084  0.00054  0.00397  0.00000  0.00000  0.00000   0.48045  0.00000  0.00000  0.00000
  Se   -4.26271 -2.46218 13.58382   0.00189  0.00111  0.01094  0.00000  0.00000  0.00000  -0.25501  0.00000  0.00000  0.00000
  Se   -2.13609 -1.23313 10.03202  -0.00002 -0.00001  0.00001  0.00000  0.00000  0.00000  -0.45089  0.00000  0.00000  0.00000
15
   time=    1.500 (fs)  Energy= -545.41973 (Hartree) Cell_Vectors= -4.31175  0.03959  0.00361 -2.12166 -3.75387  0.00197 -0.00195 -0.00105 30.08729
  Se   -2.15530 -1.24296 16.50832  -0.00166 -0.00098 -0.00885  0.00000  0.00000  0.00000  -0.25402  0.00000  0.00000  0.00000
  Se   -2.13493 -1.23377  3.55348   0.00164  0.00097  0.00890  0.00000  0.00000  0.00000  -0.25401  0.00000  0.00000  0.00000
  Bi   -2.13968 -1.23539 22.00441  -0.00075 -0.00045 -0.00280  0.00000  0.00000  0.00000   0.47878  0.00000  0.00000  0.00000
  Bi   -2.15249 -1.24244 28.14476   0.00076  0.00045  0.00275  0.00000  0.00000  0.00000   0.47877  0.00000  0.00000  0.00000
  Se   -4.29019 -2.47681 20.06191   0.00001  0.00000 -0.00002  0.00000  0.00000  0.00000  -0.44953  0.00000  0.00000  0.00000
  Se   -4.30040 -2.48140 26.53927  -0.00164 -0.00097 -0.00889  0.00000  0.00000  0.00000  -0.25401  0.00000  0.00000  0.00000
  Bi   -4.28284 -2.47275  1.94807  -0.00075 -0.00045 -0.00276  0.00000  0.00000  0.00000   0.47878  0.00000  0.00000  0.00000
  Bi   -4.29547 -2.47974  8.08836   0.00069  0.00043  0.00278  0.00000  0.00000  0.00000   0.47877  0.00000  0.00000  0.00000
  Se   -2.12357 -3.75483 30.08920  -0.00000 -0.00000  0.00000  0.00000  0.00000  0.00000  -0.44953  0.00000  0.00000  0.00000
  Se   -0.01007 -0.00442  6.47724  -0.00164 -0.00097 -0.00887  0.00000  0.00000  0.00000  -0.25401  0.00000  0.00000  0.00000
  Bi   -6.42788 -3.71111 11.97895  -0.00081 -0.00050 -0.00280  0.00000  0.00000  0.00000   0.47878  0.00000  0.00000  0.00000
  Se   -6.42516 -3.71070 23.61546   0.00165  0.00097  0.00888  0.00000  0.00000  0.00000  -0.25401  0.00000  0.00000  0.00000
  Bi   -0.00731 -0.00399 18.11376   0.00083  0.00050  0.00278  0.00000  0.00000  0.00000   0.47878  0.00000  0.00000  0.00000
  Se   -4.27997 -2.47215 13.58434   0.00167  0.00098  0.00886  0.00000  0.00000  0.00000  -0.25401  0.00000  0.00000  0.00000
  Se   -2.14499 -1.23827 10.03075  -0.00001 -0.00001  0.00003  0.00000  0.00000  0.00000  -0.44953  0.00000  0.00000  0.00000
15
   time=    2.000 (fs)  Energy= -545.42096 (Hartree) Cell_Vectors= -4.32514  0.03858  0.00062 -2.12924 -3.76496 -0.00102 -0.00131 -0.00068 30.08939
  Se   -2.16252 -1.24713 16.50451  -0.00134 -0.00080 -0.00754  0.00000  0.00000  0.00000  -0.25326  0.00000  0.00000  0.00000
  Se   -2.14126 -1.23742  3.55470   0.00133  0.00079  0.00758  0.00000  0.00000  0.00000  -0.25325  0.00000  0.00000  0.00000
  Bi   -2.14643 -1.23929 22.00302  -0.00057 -0.00036 -0.00182  0.00000  0.00000  0.00000   0.47757  0.00000  0.00000  0.00000
  Bi   -2.15864 -1.24599 28.14563   0.00063  0.00038  0.00185  0.00000  0.00000  0.00000   0.47757  0.00000  0.00000  0.00000
  Se   -4.30374 -2.48463 20.05931   0.00000  0.00000 -0.00004  0.00000  0.00000  0.00000  -0.44863  0.00000  0.00000  0.00000
  Se   -4.31439 -2.48948 26.53415  -0.00133 -0.00079 -0.00757  0.00000  0.00000  0.00000  -0.25325  0.00000  0.00000  0.00000
  Bi   -4.29701 -2.48093  1.94330  -0.00064 -0.00038 -0.00186  0.00000  0.00000  0.00000   0.47757  0.00000  0.00000  0.00000
  Bi   -4.30906 -2.48758  8.08585   0.00057  0.00037  0.00180  0.00000  0.00000  0.00000   0.47756  0.00000  0.00000  0.00000
  Se   -2.13050 -3.76554 30.08830  -0.00000 -0.00000  0.00000  0.00000  0.00000  0.00000  -0.44862  0.00000  0.00000  0.00000
  Se   -0.01051 -0.00468  6.47472  -0.00134 -0.00080 -0.00755  0.00000  0.00000  0.00000  -0.25325  0.00000  0.00000  0.00000
  Bi   -6.44884 -3.72322 11.97287  -0.00056 -0.00034 -0.00187  0.00000  0.00000  0.00000   0.47757  0.00000  0.00000  0.00000
  Se   -6.44504 -3.72217 23.61409   0.00134  0.00080  0.00756  0.00000  0.00000  0.00000  -0.25325  0.00000  0.00000  0.00000
  Bi   -0.00666 -0.00361 18.11595   0.00053  0.00032  0.00188  0.00000  0.00000  0.00000   0.47757  0.00000  0.00000  0.00000
  Se   -4.29307 -2.47971 13.58425   0.00135  0.00080  0.00755  0.00000  0.00000  0.00000  -0.25326  0.00000  0.00000  0.00000
  Se   -2.15177 -1.24218 10.02947  -0.00001 -0.00000  0.00004  0.00000  0.00000  0.00000  -0.44863  0.00000  0.00000  0.00000
15
   time=    2.500 (fs)  Energy= -545.42288 (Hartree) Cell_Vectors= -4.33823  0.02871 -0.00411 -2.14433 -3.77136 -0.00571 -0.00030 -0.00010 30.10193
  Se   -2.17369 -1.25365 16.49247  -0.00040 -0.00025 -0.00495  0.00000  0.00000  0.00000  -0.25020  0.00000  0.00000  0.00000
  Se   -2.14833 -1.24146  3.56891   0.00041  0.00025  0.00497  0.00000  0.00000  0.00000  -0.25019  0.00000  0.00000  0.00000
  Bi   -2.15525 -1.24445 22.00734  -0.00015 -0.00014  0.00023  0.00000  0.00000  0.00000   0.47367  0.00000  0.00000  0.00000
  Bi   -2.16676 -1.25067 28.15600   0.00012  0.00009 -0.00043  0.00000  0.00000  0.00000   0.47367  0.00000  0.00000  0.00000
  Se   -4.32187 -2.49511 20.06134  -0.00000 -0.00000 -0.00003  0.00000  0.00000  0.00000  -0.44695  0.00000  0.00000  0.00000
  Se   -4.33448 -2.50113 26.52308  -0.00041 -0.00025 -0.00496  0.00000  0.00000  0.00000  -0.25020  0.00000  0.00000  0.00000
  Bi   -4.31607 -2.49195  1.93603  -0.00011 -0.00009  0.00041  0.00000  0.00000  0.00000   0.47367  0.00000  0.00000  0.00000
  Bi   -4.32739 -2.49808  8.08461   0.00015  0.00016 -0.00026  0.00000  0.00000  0.00000   0.47368  0.00000  0.00000  0.00000
  Se   -2.14458 -3.77137 30.09615  -0.00000 -0.00000  0.00000  0.00000  0.00000  0.00000  -0.44695  0.00000  0.00000  0.00000
  Se   -0.01258 -0.00593  6.46159  -0.00039 -0.00025 -0.00498  0.00000  0.00000  0.00000  -0.25020  0.00000  0.00000  0.00000
  Bi   -6.47674 -3.73934 11.96662  -0.00004 -0.00003  0.00035  0.00000  0.00000  0.00000   0.47369  0.00000  0.00000  0.00000
  Se   -6.47012 -3.73660 23.63035   0.00039  0.00025  0.00498  0.00000  0.00000  0.00000  -0.25020  0.00000  0.00000  0.00000
  Bi   -0.00600 -0.00322 18.12534   0.00005  0.00003 -0.00036  0.00000  0.00000  0.00000   0.47368  0.00000  0.00000  0.00000
  Se   -4.30907 -2.48889 13.59944   0.00040  0.00025  0.00496  0.00000  0.00000  0.00000  -0.25020  0.00000  0.00000  0.00000
  Se   -2.16082 -1.24739 10.03058   0.00000 -0.00000  0.00003  0.00000  0.00000  0.00000  -0.44696  0.00000  0.00000  0.00000
15
   time=    3.000 (fs)  Energy= -545.42454 (Hartree) Cell_Vectors= -4.36170  0.00807 -0.00643 -2.17394 -3.78137 -0.00786  0.00015  0.00015 30.12551
  Se   -2.19309 -1.26504 16.47240   0.00063  0.00035 -0.00111  0.00000  0.00000  0.00000  -0.24568  0.00000  0.00000  0.00000
  Se   -2.16411 -1.25045  3.60185  -0.00066 -0.00037  0.00112  0.00000  0.00000  0.00000  -0.24570  0.00000  0.00000  0.00000
  Bi   -2.17251 -1.25478 22.02685   0.00046  0.00025  0.00311  0.00000  0.00000  0.00000   0.46760  0.00000  0.00000  0.00000
  Bi   -2.18439 -1.26076 28.17154  -0.00041 -0.00020 -0.00309  0.00000  0.00000  0.00000   0.46775  0.00000  0.00000  0.00000
  Se   -4.35719 -2.51562 20.07367   0.00000  0.00000 -0.00002  0.00000  0.00000  0.00000  -0.44404  0.00000  0.00000  0.00000
  Se   -4.37131 -2.52253 26.50925   0.00066  0.00037 -0.00112  0.00000  0.00000  0.00000  -0.24569  0.00000  0.00000  0.00000
  Bi   -4.35102 -2.51221  1.93952   0.00041  0.00021  0.00308  0.00000  0.00000  0.00000   0.46775  0.00000  0.00000  0.00000
  Bi   -4.36267 -2.51799  8.08400  -0.00049 -0.00023 -0.00309  0.00000  0.00000  0.00000   0.46762  0.00000  0.00000  0.00000
  Se   -2.17375 -3.78113 30.11758  -0.00000  0.00000 -0.00000  0.00000  0.00000  0.00000  -0.44406  0.00000  0.00000  0.00000
  Se   -0.01401 -0.00679  6.43527   0.00065  0.00038 -0.00105  0.00000  0.00000  0.00000  -0.24562  0.00000  0.00000  0.00000
  Bi   -6.52866 -3.76931 11.97625   0.00027  0.00015  0.00316  0.00000  0.00000  0.00000   0.46772  0.00000  0.00000  0.00000
  Se   -6.52127 -3.76610 23.67574  -0.00065 -0.00037  0.00103  0.00000  0.00000  0.00000  -0.24561  0.00000  0.00000  0.00000
  Bi   -0.00667 -0.00367 18.13479  -0.00028 -0.00015 -0.00315  0.00000  0.00000  0.00000   0.46771  0.00000  0.00000  0.00000
  Se   -4.34227 -2.50791 13.63864  -0.00063 -0.00035  0.00111  0.00000  0.00000  0.00000  -0.24569  0.00000  0.00000  0.00000
  Se   -2.17812 -1.25728 10.03733   0.00000 -0.00000  0.00001  0.00000  0.00000  0.00000  -0.44404  0.00000  0.00000  0.00000
15
   time=    3.500 (fs)  Energy= -545.42555 (Hartree) Cell_Vectors= -4.38267 -0.02553  0.01626 -2.21345 -3.78260  0.01546 -0.00499 -0.00287 30.14114
  Se   -2.20907 -1.27459 16.44718   0.00031  0.00017  0.00010  0.00000  0.00000  0.00000  -0.24504  0.00000  0.00000  0.00000
  Se   -2.19177 -1.26619  3.66844  -0.00027 -0.00015 -0.00021  0.00000  0.00000  0.00000  -0.24487  0.00000  0.00000  0.00000
  Bi   -2.19162 -1.26619 22.09496  -0.00016 -0.00008  0.00038  0.00000  0.00000  0.00000   0.46563  0.00000  0.00000  0.00000
  Bi   -2.21272 -1.27659 28.15950   0.00016  0.00005 -0.00045  0.00000  0.00000  0.00000   0.46555  0.00000  0.00000  0.00000
  Se   -4.40018 -2.54048 20.11399  -0.00001 -0.00001 -0.00003  0.00000  0.00000  0.00000  -0.44139  0.00000  0.00000  0.00000
  Se   -4.40922 -2.54447 26.50421   0.00027  0.00016  0.00020  0.00000  0.00000  0.00000  -0.24489  0.00000  0.00000  0.00000
  Bi   -4.38823 -2.53391  2.01302  -0.00014 -0.00005  0.00042  0.00000  0.00000  0.00000   0.46554  0.00000  0.00000  0.00000
  Bi   -4.40973 -2.54397  8.07773   0.00014  0.00003 -0.00042  0.00000  0.00000  0.00000   0.46560  0.00000  0.00000  0.00000
  Se   -2.21840 -3.78530 30.15650   0.00000  0.00000 -0.00001  0.00000  0.00000  0.00000  -0.44133  0.00000  0.00000  0.00000
  Se   -0.00907 -0.00365  6.39085   0.00020  0.00015  0.00023  0.00000  0.00000  0.00000  -0.24491  0.00000  0.00000  0.00000
  Bi   -6.58985 -3.80458 12.07144  -0.00002  0.00002  0.00023  0.00000  0.00000  0.00000   0.46573  0.00000  0.00000  0.00000
  Se   -6.59193 -3.80680 23.78158  -0.00022 -0.00014 -0.00021  0.00000  0.00000  0.00000  -0.24495  0.00000  0.00000  0.00000
  Bi   -0.01141 -0.00631 18.10142   0.00003  0.00000 -0.00025  0.00000  0.00000  0.00000   0.46573  0.00000  0.00000  0.00000
  Se   -4.39196 -2.53624 13.72560  -0.00032 -0.00018 -0.00010  0.00000  0.00000  0.00000  -0.24504  0.00000  0.00000  0.00000
  Se   -2.20092 -1.27018 10.05870   0.00001  0.00001  0.00003  0.00000  0.00000  0.00000  -0.44138  0.00000  0.00000  0.00000
15
   time=    4.000 (fs)  Energy= -545.42580 (Hartree) Cell_Vectors= -4.37348 -0.01931  0.01732 -2.20347 -3.77776  0.01651 -0.00530 -0.00306 30.12648
  Se   -2.20216 -1.27060 16.44482   0.00005  0.00002 -0.00074  0.00000  0.00000  0.00000  -0.24583  0.00000  0.00000  0.00000
  Se   -2.18609 -1.26290  3.66223   0.00000  0.00000  0.00065  0.00000  0.00000  0.00000  -0.24574  0.00000  0.00000  0.00000
  Bi   -2.18614 -1.26296 22.08438  -0.00022 -0.00009 -0.00018  0.00000  0.00000  0.00000   0.46686  0.00000  0.00000  0.00000
  Bi   -2.20590 -1.27277 28.14711   0.00018  0.00004  0.00014  0.00000  0.00000  0.00000   0.46679  0.00000  0.00000  0.00000
  Se   -4.38767 -2.53326 20.10567  -0.00000 -0.00001 -0.00000  0.00000  0.00000  0.00000  -0.44211  0.00000  0.00000  0.00000
  Se   -4.39603 -2.53687 26.49781  -0.00000  0.00000 -0.00067  0.00000  0.00000  0.00000  -0.24576  0.00000  0.00000  0.00000
  Bi   -4.37615 -2.52686  2.01277  -0.00020 -0.00006 -0.00009  0.00000  0.00000  0.00000   0.46678  0.00000  0.00000  0.00000
  Bi   -4.39643 -2.53645  8.07571   0.00024  0.00005  0.00015  0.00000  0.00000  0.00000   0.46683  0.00000  0.00000  0.00000
  Se   -2.20872 -3.78065 30.14284   0.00000  0.00000 -0.00001  0.00000  0.00000  0.00000  -0.44207  0.00000  0.00000  0.00000
  Se   -0.00869 -0.00337  6.39284  -0.00005 -0.00001 -0.00065  0.00000  0.00000  0.00000  -0.24579  0.00000  0.00000  0.00000
  Bi   -6.57129 -3.79380 12.06671  -0.00005 -0.00000 -0.00035  0.00000  0.00000  0.00000   0.46690  0.00000  0.00000  0.00000
  Se   -6.57354 -3.79622 23.76706   0.00003  0.00001  0.00067  0.00000  0.00000  0.00000  -0.24582  0.00000  0.00000  0.00000
  Bi   -0.01112 -0.00619 18.09356   0.00006  0.00000  0.00033  0.00000  0.00000  0.00000   0.46690  0.00000  0.00000  0.00000
  Se   -4.38006 -2.52935 13.71540  -0.00006 -0.00002  0.00075  0.00000  0.00000  0.00000  -0.24583  0.00000  0.00000  0.00000
  Se   -2.19460 -1.26654 10.05445  -0.00000  0.00001  0.00001  0.00000  0.00000  0.00000  -0.44211  0.00000  0.00000  0.00000
15
   time=    4.500 (fs)  Energy= -545.42603 (Hartree) Cell_Vectors= -4.36181 -0.01473  0.02057 -2.19369 -3.76995  0.01981 -0.00617 -0.00356 30.09804
  Se   -2.19411 -1.26609 16.42721  -0.00033 -0.00020 -0.00119  0.00000  0.00000  0.00000  -0.24586  0.00000  0.00000  0.00000
  Se   -2.18038 -1.25949  3.66493   0.00034  0.00021  0.00127  0.00000  0.00000  0.00000  -0.24599  0.00000  0.00000  0.00000
  Bi   -2.18064 -1.25960 22.06938  -0.00035 -0.00019 -0.00068  0.00000  0.00000  0.00000   0.46718  0.00000  0.00000  0.00000
  Bi   -2.19860 -1.26888 28.11907   0.00039  0.00024  0.00063  0.00000  0.00000  0.00000   0.46715  0.00000  0.00000  0.00000
  Se   -4.37407 -2.52544 20.09118   0.00001 -0.00000  0.00003  0.00000  0.00000  0.00000  -0.44237  0.00000  0.00000  0.00000
  Se   -4.38120 -2.52841 26.47317  -0.00034 -0.00021 -0.00127  0.00000  0.00000  0.00000  -0.24598  0.00000  0.00000  0.00000
  Bi   -4.36298 -2.51897  2.01910  -0.00037 -0.00021 -0.00064  0.00000  0.00000  0.00000   0.46716  0.00000  0.00000  0.00000
  Bi   -4.38140 -2.52816  8.06869   0.00034  0.00022  0.00068  0.00000  0.00000  0.00000   0.46718  0.00000  0.00000  0.00000
  Se   -2.19982 -3.77336 30.11770   0.00000  0.00000  0.00000  0.00000  0.00000  0.00000  -0.44236  0.00000  0.00000  0.00000
  Se   -0.00797 -0.00293  6.38299  -0.00036 -0.00021 -0.00126  0.00000  0.00000  0.00000  -0.24602  0.00000  0.00000  0.00000
  Bi   -6.55063 -3.78174 12.06464  -0.00030 -0.00016 -0.00043  0.00000  0.00000  0.00000   0.46708  0.00000  0.00000  0.00000
  Se   -6.55380 -3.78481 23.75511   0.00035  0.00021  0.00126  0.00000  0.00000  0.00000  -0.24602  0.00000  0.00000  0.00000
  Bi   -0.01118 -0.00640 18.07365   0.00030  0.00017  0.00043  0.00000  0.00000  0.00000   0.46708  0.00000  0.00000  0.00000
  Se   -4.36757 -2.52202 13.71112   0.00033  0.00020  0.00118  0.00000  0.00000  0.00000  -0.24586  0.00000  0.00000  0.00000
  Se   -2.18762 -1.26251 10.04705  -0.00001  0.00000 -0.00003  0.00000  0.00000  0.00000  -0.44237  0.00000  0.00000  0.00000
15
   time=    5.000 (fs)  Energy= -545.42634 (Hartree) Cell_Vectors= -4.34838 -0.01321  0.02428 -2.18565 -3.75908  0.02359 -0.00720 -0.00417 30.04311
  Se   -2.18615 -1.26175 16.37987  -0.00052 -0.00030 -0.00094  0.00000  0.00000  0.00000  -0.24464  0.00000  0.00000  0.00000
  Se   -2.17474 -1.25598  3.68060   0.00050  0.00030  0.00098  0.00000  0.00000  0.00000  -0.24474  0.00000  0.00000  0.00000
  Bi   -2.17626 -1.25696 22.04034  -0.00035 -0.00025 -0.00052  0.00000  0.00000  0.00000   0.46560  0.00000  0.00000  0.00000
  Bi   -2.18977 -1.26390 28.06070   0.00035  0.00017  0.00072  0.00000  0.00000  0.00000   0.46554  0.00000  0.00000  0.00000
  Se   -4.36051 -2.51770 20.05928   0.00001  0.00000  0.00001  0.00000  0.00000  0.00000  -0.44168  0.00000  0.00000  0.00000
  Se   -4.36633 -2.51997 26.40993  -0.00050 -0.00029 -0.00098  0.00000  0.00000  0.00000  -0.24471  0.00000  0.00000  0.00000
  Bi   -4.35117 -2.51189  2.02990  -0.00033 -0.00020 -0.00073  0.00000  0.00000  0.00000   0.46555  0.00000  0.00000  0.00000
  Bi   -4.36569 -2.51901  8.05012   0.00042  0.00027  0.00059  0.00000  0.00000  0.00000   0.46561  0.00000  0.00000  0.00000
  Se   -2.19274 -3.76302 30.06648   0.00000  0.00000  0.00000  0.00000  0.00000  0.00000  -0.44165  0.00000  0.00000  0.00000
  Se   -0.00770 -0.00255  6.35226  -0.00047 -0.00030 -0.00102  0.00000  0.00000  0.00000  -0.24478  0.00000  0.00000  0.00000
  Bi   -6.53134 -3.77028 12.05995  -0.00040 -0.00022 -0.00058  0.00000  0.00000  0.00000   0.46549  0.00000  0.00000  0.00000
  Se   -6.53394 -3.77331 23.73838   0.00046  0.00028  0.00100  0.00000  0.00000  0.00000  -0.24477  0.00000  0.00000  0.00000
  Bi   -0.01010 -0.00598 18.03082   0.00039  0.00023  0.00059  0.00000  0.00000  0.00000   0.46549  0.00000  0.00000  0.00000
  Se   -4.35522 -2.51455 13.71100   0.00052  0.00031  0.00093  0.00000  0.00000  0.00000  -0.24465  0.00000  0.00000  0.00000
  Se   -2.18087 -1.25840 10.03146  -0.00002 -0.00000 -0.00002  0.00000  0.00000  0.00000  -0.44167  0.00000  0.00000  0.00000
15
   time=    5.500 (fs)  Energy= -545.42658 (Hartree) Cell_Vectors= -4.34162 -0.01255  0.02043 -2.18172 -3.75357  0.01975 -0.00644 -0.00373 29.97383
  Se   -2.18330 -1.26036 16.31758  -0.00014 -0.00008  0.00025  0.00000  0.00000  0.00000  -0.24245  0.00000  0.00000  0.00000
  Se   -2.16991 -1.25298  3.69156   0.00007  0.00004 -0.00025  0.00000  0.00000  0.00000  -0.24246  0.00000  0.00000  0.00000
  Bi   -2.17509 -1.25653 21.99310   0.00004 -0.00001  0.00042  0.00000  0.00000  0.00000   0.46277  0.00000  0.00000  0.00000
  Bi   -2.18223 -1.25995 27.98781   0.00006  0.00005 -0.00024  0.00000  0.00000  0.00000   0.46261  0.00000  0.00000  0.00000
  Se   -4.35288 -2.51348 20.00796   0.00002  0.00001  0.00002  0.00000  0.00000  0.00000  -0.44038  0.00000  0.00000  0.00000
  Se   -4.35949 -2.51628 26.32195  -0.00005 -0.00005  0.00025  0.00000  0.00000  0.00000  -0.24246  0.00000  0.00000  0.00000
  Bi   -4.34685 -2.50930  2.02567  -0.00014 -0.00007  0.00031  0.00000  0.00000  0.00000   0.46261  0.00000  0.00000  0.00000
  Bi   -4.35521 -2.51280  8.02060  -0.00002  0.00003 -0.00044  0.00000  0.00000  0.00000   0.46276  0.00000  0.00000  0.00000
  Se   -2.18794 -3.75707 29.99332  -0.00000  0.00000  0.00000  0.00000  0.00000  0.00000  -0.44034  0.00000  0.00000  0.00000
  Se   -0.00887 -0.00315  6.31566  -0.00007 -0.00003  0.00015  0.00000  0.00000  0.00000  -0.24256  0.00000  0.00000  0.00000
  Bi   -6.52300 -3.76512 12.03066  -0.00011 -0.00001  0.00041  0.00000  0.00000  0.00000   0.46265  0.00000  0.00000  0.00000
  Se   -6.52144 -3.76609 23.69800   0.00007  0.00003 -0.00015  0.00000  0.00000  0.00000  -0.24257  0.00000  0.00000  0.00000
  Bi   -0.00702 -0.00440 17.98315   0.00010  0.00002 -0.00040  0.00000  0.00000  0.00000   0.46266  0.00000  0.00000  0.00000
  Se   -4.34669 -2.50926 13.69630   0.00014  0.00009 -0.00026  0.00000  0.00000  0.00000  -0.24245  0.00000  0.00000  0.00000
  Se   -2.17706 -1.25594 10.00581  -0.00003 -0.00001 -0.00003  0.00000  0.00000  0.00000  -0.44038  0.00000  0.00000  0.00000
15
   time=    6.000 (fs)  Energy= -545.42669 (Hartree) Cell_Vectors= -4.33774 -0.01067  0.01677 -2.17816 -3.75117  0.01611 -0.00567 -0.00329 29.91121
  Se   -2.18116 -1.25931 16.26842   0.00015  0.00009  0.00073  0.00000  0.00000  0.00000  -0.24157  0.00000  0.00000  0.00000
  Se   -2.16687 -1.25104  3.69400  -0.00017 -0.00010 -0.00075  0.00000  0.00000  0.00000  -0.24147  0.00000  0.00000  0.00000
  Bi   -2.17377 -1.25598 21.94968   0.00023  0.00020  0.00075  0.00000  0.00000  0.00000   0.46150  0.00000  0.00000  0.00000
  Bi   -2.17674 -1.25700 27.92276  -0.00019 -0.00011 -0.00065  0.00000  0.00000  0.00000   0.46127  0.00000  0.00000  0.00000
  Se   -4.34727 -2.51041 19.96146   0.00001  0.00001  0.00002  0.00000  0.00000  0.00000  -0.43968  0.00000  0.00000  0.00000
  Se   -4.35427 -2.51348 26.24959   0.00017  0.00009  0.00076  0.00000  0.00000  0.00000  -0.24149  0.00000  0.00000  0.00000
  Bi   -4.34419 -2.50763  2.02093   0.00014  0.00009  0.00070  0.00000  0.00000  0.00000   0.46128  0.00000  0.00000  0.00000
  Bi   -4.34824 -2.50853  7.99411  -0.00027 -0.00023 -0.00075  0.00000  0.00000  0.00000   0.46148  0.00000  0.00000  0.00000
  Se   -2.18362 -3.75423 29.92708  -0.00000  0.00000  0.00001  0.00000  0.00000  0.00000  -0.43965  0.00000  0.00000  0.00000
  Se   -0.00964 -0.00344  6.28949   0.00020  0.00011  0.00064  0.00000  0.00000  0.00000  -0.24161  0.00000  0.00000  0.00000
  Bi   -6.51721 -3.76132 12.00308   0.00012  0.00009  0.00066  0.00000  0.00000  0.00000   0.46139  0.00000  0.00000  0.00000
  Se   -6.51256 -3.76105 23.65424  -0.00018 -0.00011 -0.00063  0.00000  0.00000  0.00000  -0.24163  0.00000  0.00000  0.00000
  Bi   -0.00466 -0.00330 17.94079  -0.00013 -0.00009 -0.00068  0.00000  0.00000  0.00000   0.46141  0.00000  0.00000  0.00000
  Se   -4.34070 -2.50546 13.67548  -0.00015 -0.00008 -0.00073  0.00000  0.00000  0.00000  -0.24154  0.00000  0.00000  0.00000
  Se   -2.17452 -1.25420  9.98235  -0.00003 -0.00001 -0.00002  0.00000  0.00000  0.00000  -0.43970  0.00000  0.00000  0.00000
15
   time=    6.500 (fs)  Energy= -545.42693 (Hartree) Cell_Vectors= -4.33813 -0.00715  0.01029 -2.17530 -3.75325  0.00977 -0.00424 -0.00248 29.81159
  Se   -2.18014 -1.25891 16.20021   0.00040  0.00022  0.00083  0.00000  0.00000  0.00000  -0.24150  0.00000  0.00000  0.00000
  Se   -2.16549 -1.25004  3.68705  -0.00046 -0.00026 -0.00089  0.00000  0.00000  0.00000  -0.24138  0.00000  0.00000  0.00000
  Bi   -2.17321 -1.25540 21.87872   0.00030  0.00026  0.00067  0.00000  0.00000  0.00000   0.46114  0.00000  0.00000  0.00000
  Bi   -2.17260 -1.25499 27.82076  -0.00032 -0.00013 -0.00080  0.00000  0.00000  0.00000   0.46091  0.00000  0.00000  0.00000
  Se   -4.34437 -2.50877 19.88694   0.00000  0.00000  0.00001  0.00000  0.00000  0.00000  -0.43919  0.00000  0.00000  0.00000
  Se   -4.35173 -2.51231 26.14429   0.00045  0.00025  0.00093  0.00000  0.00000  0.00000  -0.24138  0.00000  0.00000  0.00000
  Bi   -4.34457 -2.50764  2.01089   0.00038  0.00019  0.00078  0.00000  0.00000  0.00000   0.46093  0.00000  0.00000  0.00000
  Bi   -4.34495 -2.50704  7.95278  -0.00034 -0.00028 -0.00072  0.00000  0.00000  0.00000   0.46112  0.00000  0.00000  0.00000
  Se   -2.17935 -3.75553 29.82125   0.00000  0.00000  0.00001  0.00000  0.00000  0.00000  -0.43916  0.00000  0.00000  0.00000
  Se   -0.01003 -0.00387  6.25771   0.00045  0.00025  0.00077  0.00000  0.00000  0.00000  -0.24151  0.00000  0.00000  0.00000
  Bi   -6.51621 -3.76029 11.95573   0.00031  0.00028  0.00070  0.00000  0.00000  0.00000   0.46108  0.00000  0.00000  0.00000
  Se   -6.50833 -3.75850 23.57365  -0.00043 -0.00025 -0.00076  0.00000  0.00000  0.00000  -0.24150  0.00000  0.00000  0.00000
  Bi   -0.00193 -0.00197 17.87557  -0.00029 -0.00029 -0.00062  0.00000  0.00000  0.00000   0.46110  0.00000  0.00000  0.00000
  Se   -4.33795 -2.50347 13.63113  -0.00040 -0.00021 -0.00083  0.00000  0.00000  0.00000  -0.24147  0.00000  0.00000  0.00000
  Se   -2.17370 -1.25358  9.94438  -0.00001 -0.00001 -0.00001  0.00000  0.00000  0.00000  -0.43919  0.00000  0.00000  0.00000
15
   time=    7.000 (fs)  Energy= -545.42721 (Hartree) Cell_Vectors= -4.34237 -0.00436  0.00520 -2.17501 -3.75833  0.00483 -0.00310 -0.00183 29.71055
  Se   -2.18047 -1.25944 16.13665   0.00052  0.00028  0.00065  0.00000  0.00000  0.00000  -0.24212  0.00000  0.00000  0.00000
  Se   -2.16736 -1.25100  3.67634  -0.00053 -0.00031 -0.00068  0.00000  0.00000  0.00000  -0.24201  0.00000  0.00000  0.00000
  Bi   -2.17436 -1.25559 21.80739   0.00046  0.00025  0.00031  0.00000  0.00000  0.00000   0.46158  0.00000  0.00000  0.00000
  Bi   -2.17165 -1.25459 27.71826  -0.00055 -0.00035 -0.00041  0.00000  0.00000  0.00000   0.46146  0.00000  0.00000  0.00000
  Se   -4.34599 -2.50979 19.81343  -0.00001 -0.00000  0.00002  0.00000  0.00000  0.00000  -0.43895  0.00000  0.00000  0.00000
  Se   -4.35252 -2.51303 26.04423   0.00053  0.00030  0.00071  0.00000  0.00000  0.00000  -0.24203  0.00000  0.00000  0.00000
  Bi   -4.34809 -2.50964  2.00262   0.00052  0.00029  0.00036  0.00000  0.00000  0.00000   0.46147  0.00000  0.00000  0.00000
  Bi   -4.34668 -2.50864  7.91313  -0.00050 -0.00021 -0.00031  0.00000  0.00000  0.00000   0.46159  0.00000  0.00000  0.00000
  Se   -2.17786 -3.75992 29.71541   0.00000 -0.00000  0.00001  0.00000  0.00000  0.00000  -0.43896  0.00000  0.00000  0.00000
  Se   -0.00923 -0.00375  6.22991   0.00052  0.00027  0.00063  0.00000  0.00000  0.00000  -0.24210  0.00000  0.00000  0.00000