
The number of threads in each node for OpenMP parallelization is 1.


*******************************************************
*******************************************************
 Welcome to OpenMX   Ver. 3.7.8                           
 Copyright (C), 2002-2013, T. Ozaki                    
 OpenMX comes with ABSOLUTELY NO WARRANTY.             
 This is free software, and you are welcome to         
 redistribute it under the constitution of the GNU-GPL.
*******************************************************
*******************************************************



<Input_std>  Your input file was normally read.
<Input_std>  The system includes 2 species and 3 atoms.

*******************************************************
                     PAO and VPS                       
*******************************************************

<SetPara_DFT>  PAOs of species Mo were normally found.
<SetPara_DFT>  PAOs of species Se were normally found.
<SetPara_DFT>  VPSs of species Mo were normally found.
               Mo_PBE13.vps is j-dependent.
<SetPara_DFT>  VPSs of species Se were normally found.
               Se_PBE13.vps is j-dependent.

*******************************************************
     Fourier transform of PAO and projectors of VNL    
*******************************************************

<FT_PAO>          Fourier transform of pseudo atomic orbitals
<FT_NLP>          Fourier transform of non-local projectors
<FT_ProExpn_VNA>  Fourier transform of VNA separable projectors
<FT_VNA>          Fourier transform of VNA potentials
<FT_ProductPAO>   Fourier transform of product of PAOs

*******************************************************
  Allocation of atoms to proccesors at MD_iter=    1     
*******************************************************

 proc =   0  # of atoms=   1  estimated weight=         1.00000
 proc =   1  # of atoms=   1  estimated weight=         1.00000
 proc =   2  # of atoms=   1  estimated weight=         1.00000
 proc =   3  # of atoms=   0  estimated weight=         0.00000




*******************************************************
        Analysis of neigbors and setting of grids        
*******************************************************

TFNAN=      74   Average FNAN=  24.66667
TSNAN=       0   Average SNAN=   0.00000
<truncation> CpyCell= 1 ct_AN=   1 FNAN SNAN  24   0
<truncation> CpyCell= 1 ct_AN=   2 FNAN SNAN  25   0
<truncation> CpyCell= 1 ct_AN=   3 FNAN SNAN  25   0
TFNAN=     110   Average FNAN=  36.66667
TSNAN=       0   Average SNAN=   0.00000
<truncation> CpyCell= 2 ct_AN=   1 FNAN SNAN  36   0
<truncation> CpyCell= 2 ct_AN=   2 FNAN SNAN  37   0
<truncation> CpyCell= 2 ct_AN=   3 FNAN SNAN  37   0
TFNAN=     110   Average FNAN=  36.66667
TSNAN=       0   Average SNAN=   0.00000
<truncation> CpyCell= 3 ct_AN=   1 FNAN SNAN  36   0
<truncation> CpyCell= 3 ct_AN=   2 FNAN SNAN  37   0
<truncation> CpyCell= 3 ct_AN=   3 FNAN SNAN  37   0
TFNAN=     110   Average FNAN=  36.66667
TSNAN=       0   Average SNAN=   0.00000
<truncation> CpyCell= 3 ct_AN=   1 FNAN SNAN  36   0
<truncation> CpyCell= 3 ct_AN=   2 FNAN SNAN  37   0
<truncation> CpyCell= 3 ct_AN=   3 FNAN SNAN  37   0
<Check_System> The system is slab.
lattice vectors (bohr)
A  =  7.094992286790,  0.000000000000,  0.000000000000
B  =  3.547496143395,  6.144443560015,  0.000000000000
C  =  0.000000000000,  0.000000000000, 188.972598857892
reciprocal lattice vectors (bohr^-1)
RA =  0.885580287223, -0.511290017217,  0.000000000000
RB =  0.000000000000,  1.022580034434,  0.000000000000
RB =  0.000000000000,  0.000000000000,  0.033249187158
Grid_Origin  0.000000000000  0.000000000000  0.000000000000
Cell_Volume =   8238.218809918486 (Bohr^3)
GridVol     =      0.012509443042 (Bohr^3)
Grid_Origin  0.000000000000  0.000000000000  0.000000000000
Cell_Volume =   8238.218809918486 (Bohr^3)
GridVol     =      0.012509443042 (Bohr^3)
<UCell_Box> Info. of cutoff energy and num. of grids
lattice vectors (bohr)
A  =  7.094992286790,  0.000000000000,  0.000000000000
B  =  3.547496143395,  6.144443560015,  0.000000000000
C  =  0.000000000000,  0.000000000000, 188.972598857892
reciprocal lattice vectors (bohr^-1)
RA =  0.885580287223, -0.511290017217,  0.000000000000
RB =  0.000000000000,  1.022580034434,  0.000000000000
RB =  0.000000000000,  0.000000000000,  0.033249187158
Required cutoff energy (Ryd) for 3D-grids = 200.0000
    Used cutoff energy (Ryd) for 3D-grids = 204.9513, 204.9513, 195.0117
Num. of grids of a-, b-, and c-axes = 28, 28, 840
Grid_Origin  0.000000000000  0.000000000000  0.000000000000
Cell_Volume =   8238.218809918486 (Bohr^3)
GridVol     =      0.012509443042 (Bohr^3)
Cell vectors (bohr) of the grid cell (gtv)
  gtv_a =  0.253392581671,  0.000000000000,  0.000000000000
  gtv_b =  0.126696290836,  0.219444412858,  0.000000000000
  gtv_c =  0.000000000000,  0.000000000000,  0.224967379593
  |gtv_a| =  0.253392581671
  |gtv_b| =  0.253392581671
  |gtv_c| =  0.224967379593
Num. of grids overlapping with atom    1 = 114870
Num. of grids overlapping with atom    2 = 114897
Num. of grids overlapping with atom    3 = 114897

*******************************************************
             SCF calculation at MD = 1                
*******************************************************

<MD= 1>  Calculation of the overlap matrix
<MD= 1>  Calculation of the nonlocal matrix
<MD= 1>  Calculation of the VNA projector matrix

******************* MD= 1  SCF= 1 *******************
<Band>  Solving the eigenvalue problem...
 KGrids1:  -0.45000  -0.35000  -0.25000  -0.15000  -0.05000   0.05000   0.15000   0.25000   0.35000   0.45000 
 KGrids2:  -0.45000  -0.35000  -0.25000  -0.15000  -0.05000   0.05000   0.15000   0.25000   0.35000   0.45000 
 KGrids3:   0.00000 
<Band_DFT>  Eigen, time=0.267151
<Band_DFT>  DM, time=0.521360
    1   Mo  MulP 6.07 6.07 sum 12.13 diff  0.00 ( 14.28 269.68)  Ml 0.00 (  0.00   0.00)  Ml+s 0.00 (  0.15 269.68)
    2   Se  MulP 3.47 3.47 sum  6.93 diff  0.00 ( 90.01  30.00)  Ml 0.00 ( 89.62  30.00)  Ml+s 0.00 ( 90.01  30.00)
    3   Se  MulP 3.47 3.47 sum  6.93 diff  0.00 ( 90.01 210.00)  Ml 0.00 ( 89.62 210.00)  Ml+s 0.00 ( 90.01 210.00)
 Sum of MulP: up   =    13.00000 down          =    13.00000
              total=    26.00000 ideal(neutral)=    26.00000
<DFT>  Total Spin Moment    (muB)  0.000000000   Angles    0.002541664     0.000000000
<DFT>  Total Orbital Moment (muB)  0.000000043   Angles    0.000000000     0.000000000
<DFT>  Total Moment         (muB)  0.000000043   Angles    0.000003722     0.000000000
<DFT>  Mixing_weight= 0.300000000000
<DFT>  Uele   =  -19.352607849413  dUele     =   1.000000000000
<DFT>  NormRD =    1.000000000000  Criterion =   0.000000000100

******************* MD= 1  SCF= 2 *******************
<Poisson>  Poisson's equation using FFT...
<Set_Hamiltonian>  Hamiltonian matrix for VNA+dVH+Vxc...
<Band>  Solving the eigenvalue problem...
 KGrids1:  -0.45000  -0.35000  -0.25000  -0.15000  -0.05000   0.05000   0.15000   0.25000   0.35000   0.45000 
 KGrids2:  -0.45000  -0.35000  -0.25000  -0.15000  -0.05000   0.05000   0.15000   0.25000   0.35000   0.45000 
 KGrids3:   0.00000 
<Band_DFT>  Eigen, time=0.268070
<Band_DFT>  DM, time=0.533021
    1   Mo  MulP10.2610.26 sum 20.53 diff  0.00 (  0.00  73.36)  Ml 0.00 (180.00 194.92)  Ml+s 0.00 (  0.01  73.38)
    2   Se  MulP 1.37 1.37 sum  2.74 diff  0.00 ( 87.38 210.00)  Ml 0.00 (166.64 210.00)  Ml+s 0.00 ( 88.07 210.00)
    3   Se  MulP 1.37 1.37 sum  2.74 diff  0.00 ( 87.38  30.00)  Ml 0.00 (166.64  30.00)  Ml+s 0.00 ( 88.07  30.00)
 Sum of MulP: up   =    13.00006 down          =    12.99994
              total=    26.00000 ideal(neutral)=    26.00000
<DFT>  Total Spin Moment    (muB)  0.000008019   Angles    0.000011230    33.316169620
<DFT>  Total Orbital Moment (muB)  0.000001836   Angles  179.999990303   197.831733587
<DFT>  Total Moment         (muB)  0.000006184   Angles    0.000011830    37.045909366
<DFT>  Mixing_weight= 0.014524309876
<DFT>  Uele   =  -32.113657615765  dUele     =  12.761049766352
<DFT>  NormRD =    4.433398936456  Criterion =   0.000000000100

******************* MD= 1  SCF= 3 *******************
<Poisson>  Poisson's equation using FFT...
<Set_Hamiltonian>  Hamiltonian matrix for VNA+dVH+Vxc...
<Band>  Solving the eigenvalue problem...
 KGrids1:  -0.45000  -0.35000  -0.25000  -0.15000  -0.05000   0.05000   0.15000   0.25000   0.35000   0.45000 
 KGrids2:  -0.45000  -0.35000  -0.25000  -0.15000  -0.05000   0.05000   0.15000   0.25000   0.35000   0.45000 
 KGrids3:   0.00000 
<Band_DFT>  Eigen, time=0.279916
<Band_DFT>  DM, time=0.561245
    1   Mo  MulP10.1510.15 sum 20.29 diff  0.00 (  0.01  77.47)  Ml 0.00 (  0.00 200.95)  Ml+s 0.00 (  0.01  77.50)
    2   Se  MulP 1.43 1.43 sum  2.85 diff  0.00 ( 88.66 210.00)  Ml 0.00 (154.75  30.00)  Ml+s 0.00 ( 89.05 210.00)
    3   Se  MulP 1.43 1.43 sum  2.85 diff  0.00 ( 88.66  30.00)  Ml 0.00 (154.75 210.00)  Ml+s 0.00 ( 89.05  30.00)
 Sum of MulP: up   =    13.00005 down          =    12.99995
              total=    26.00000 ideal(neutral)=    26.00000
<DFT>  Total Spin Moment    (muB)  0.000003417   Angles    0.000015950    34.038490488
<DFT>  Total Orbital Moment (muB)  0.000000474   Angles  179.999977011   190.883193369
<DFT>  Total Moment         (muB)  0.000002943   Angles    0.000015177    39.534877921
<DFT>  Mixing_weight= 0.180665607357
<DFT>  Uele   =  -30.992084747854  dUele     =   1.121572867911
<DFT>  NormRD =    4.251457763973  Criterion =   0.000000000100

******************* MD= 1  SCF= 4 *******************
<Poisson>  Poisson's equation using FFT...
<Set_Hamiltonian>  Hamiltonian matrix for VNA+dVH+Vxc...
<Band>  Solving the eigenvalue problem...
 KGrids1:  -0.45000  -0.35000  -0.25000  -0.15000  -0.05000   0.05000   0.15000   0.25000   0.35000   0.45000 
 KGrids2:  -0.45000  -0.35000  -0.25000  -0.15000  -0.05000   0.05000   0.15000   0.25000   0.35000   0.45000 
 KGrids3:   0.00000 
<Band_DFT>  Eigen, time=0.272287
<Band_DFT>  DM, time=0.536137
    1   Mo  MulP 6.32 6.32 sum 12.64 diff  0.00 (179.69 269.63)  Ml 0.00 (  0.00   0.00)  Ml+s 0.00 (  0.31 269.63)
    2   Se  MulP 3.34 3.34 sum  6.68 diff  0.00 ( 89.61  30.00)  Ml 0.00 ( 13.74  30.00)  Ml+s 0.00 ( 89.57  30.00)
    3   Se  MulP 3.34 3.34 sum  6.68 diff  0.00 ( 89.61 210.00)  Ml 0.00 ( 13.74 210.00)  Ml+s 0.00 ( 89.57 210.00)
 Sum of MulP: up   =    13.00000 down          =    13.00000
              total=    26.00000 ideal(neutral)=    26.00000
<DFT>  Total Spin Moment    (muB)  0.000000001   Angles    0.000131184     0.000000000
<DFT>  Total Orbital Moment (muB)  0.000000051   Angles    0.000000854     0.000000000
<DFT>  Total Moment         (muB)  0.000000052   Angles    0.000003415     0.000000000
<DFT>  Mixing_weight= 0.186042411778
<DFT>  Uele   =  -19.008190572628  dUele     =  11.983894175226
<DFT>  NormRD =    0.722759831968  Criterion =   0.000000000100

******************* MD= 1  SCF= 5 *******************
<Poisson>  Poisson's equation using FFT...
<Set_Hamiltonian>  Hamiltonian matrix for VNA+dVH+Vxc...
<Band>  Solving the eigenvalue problem...
 KGrids1:  -0.45000  -0.35000  -0.25000  -0.15000  -0.05000   0.05000   0.15000   0.25000   0.35000   0.45000 
 KGrids2:  -0.45000  -0.35000  -0.25000  -0.15000  -0.05000   0.05000   0.15000   0.25000   0.35000   0.45000 
 KGrids3:   0.00000 
<Band_DFT>  Eigen, time=0.272167
<Band_DFT>  DM, time=0.534681
    1   Mo  MulP 7.11 7.11 sum 14.23 diff  0.00 (179.96 267.38)  Ml 0.00 (  0.00   0.00)  Ml+s 0.00 (179.92 267.38)
    2   Se  MulP 2.94 2.94 sum  5.89 diff  0.00 ( 88.73  30.01)  Ml 0.00 ( 36.99  30.00)  Ml+s 0.00 ( 88.68  30.01)
    3   Se  MulP 2.94 2.94 sum  5.89 diff  0.00 ( 88.73 210.01)  Ml 0.00 ( 36.99 210.00)  Ml+s 0.00 ( 88.68 210.01)
 Sum of MulP: up   =    13.00000 down          =    13.00000
              total=    26.00000 ideal(neutral)=    26.00000
<DFT>  Total Spin Moment    (muB)  0.000000003   Angles    0.000009430     0.000000000
<DFT>  Total Orbital Moment (muB)  0.000000021   Angles    0.000003195     0.000000000
<DFT>  Total Moment         (muB)  0.000000024   Angles    0.000004005     0.000000000
<DFT>  Mixing_weight= 0.186042411778
<DFT>  Uele   =  -20.787975353153  dUele     =   1.779784780525
<DFT>  NormRD =    0.850365753282  Criterion =   0.000000000100

******************* MD= 1  SCF= 6 *******************
<Poisson>  Poisson's equation using FFT...
<Set_Hamiltonian>  Hamiltonian matrix for VNA+dVH+Vxc...
<Band>  Solving the eigenvalue problem...
 KGrids1:  -0.45000  -0.35000  -0.25000  -0.15000  -0.05000   0.05000   0.15000   0.25000   0.35000   0.45000 
 KGrids2:  -0.45000  -0.35000  -0.25000  -0.15000  -0.05000   0.05000   0.15000   0.25000   0.35000   0.45000 
 KGrids3:   0.00000 
<Band_DFT>  Eigen, time=0.272779
<Band_DFT>  DM, time=0.535702
    1   Mo  MulP 6.65 6.65 sum 13.29 diff  0.00 (179.82 269.37)  Ml 0.00 (  0.00   0.00)  Ml+s 0.00 (179.38 269.37)
    2   Se  MulP 3.18 3.18 sum  6.35 diff  0.00 ( 89.46  30.01)  Ml 0.00 ( 16.09  30.00)  Ml+s 0.00 ( 89.43  30.01)
    3   Se  MulP 3.18 3.18 sum  6.35 diff  0.00 ( 89.46 210.00)  Ml 0.00 ( 16.09 210.00)  Ml+s 0.00 ( 89.43 210.00)
 Sum of MulP: up   =    13.00000 down          =    13.00000
              total=    26.00000 ideal(neutral)=    26.00000
<DFT>  Total Spin Moment    (muB)  0.000000001   Angles    0.000093802     0.000000000
<DFT>  Total Orbital Moment (muB)  0.000000021   Angles    0.000000854     0.000000000
<DFT>  Total Moment         (muB)  0.000000022   Angles    0.000004598     0.000000000
<DFT>  Mixing_weight= 0.186042411778
<DFT>  Uele   =  -20.029199969640  dUele     =   0.758775383513
<DFT>  NormRD =    0.457900097207  Criterion =   0.000000000100

******************* MD= 1  SCF= 7 *******************
<Poisson>  Poisson's equation using FFT...
<Set_Hamiltonian>  Hamiltonian matrix for VNA+dVH+Vxc...
<Band>  Solving the eigenvalue problem...
 KGrids1:  -0.45000  -0.35000  -0.25000  -0.15000  -0.05000   0.05000   0.15000   0.25000   0.35000   0.45000 
 KGrids2:  -0.45000  -0.35000  -0.25000  -0.15000  -0.05000   0.05000   0.15000   0.25000   0.35000   0.45000 
 KGrids3:   0.00000 
<Band_DFT>  Eigen, time=0.271496
<Band_DFT>  DM, time=0.538975
    1   Mo  MulP 7.62 7.62 sum 15.24 diff  0.00 (179.99 107.22)  Ml 0.00 (  0.00 208.59)  Ml+s 0.00 (179.98 107.35)
    2   Se  MulP 2.69 2.69 sum  5.38 diff  0.00 ( 89.54 210.00)  Ml 0.00 ( 39.59 210.00)  Ml+s 0.00 ( 88.94 210.00)
    3   Se  MulP 2.69 2.69 sum  5.38 diff  0.00 ( 89.54  30.00)  Ml 0.00 ( 39.59  30.00)  Ml+s 0.00 ( 88.94  30.00)
 Sum of MulP: up   =    13.00001 down          =    12.99999
              total=    26.00000 ideal(neutral)=    26.00000
<DFT>  Total Spin Moment    (muB)  0.000000182   Angles  179.999757573    27.378546758
<DFT>  Total Orbital Moment (muB)  0.000000351   Angles    0.000003307    15.126563718
<DFT>  Total Moment         (muB)  0.000000169   Angles    0.000268922    27.067347843
<DFT>  Mixing_weight= 0.186042411778
<DFT>  Uele   =  -21.816651254736  dUele     =   1.787451285097
<DFT>  NormRD =    1.096357647726  Criterion =   0.000000000100

******************* MD= 1  SCF= 8 *******************
<Poisson>  Poisson's equation using FFT...
<Set_Hamiltonian>  Hamiltonian matrix for VNA+dVH+Vxc...
<Band>  Solving the eigenvalue problem...
 KGrids1:  -0.45000  -0.35000  -0.25000  -0.15000  -0.05000   0.05000   0.15000   0.25000   0.35000   0.45000 
 KGrids2:  -0.45000  -0.35000  -0.25000  -0.15000  -0.05000   0.05000   0.15000   0.25000   0.35000   0.45000 
 KGrids3:   0.00000 
<Band_DFT>  Eigen, time=0.267185
<Band_DFT>  DM, time=0.525341
    1   Mo  MulP 6.82 6.82 sum 13.65 diff  0.00 (179.93 268.13)  Ml 0.00 (  0.00 151.11)  Ml+s 0.00 (179.90 268.01)
    2   Se  MulP 3.09 3.09 sum  6.18 diff  0.00 ( 88.96  30.01)  Ml 0.00 ( 30.62  30.00)  Ml+s 0.00 ( 88.94  30.01)
    3   Se  MulP 3.09 3.09 sum  6.18 diff  0.00 ( 88.96 210.01)  Ml 0.00 ( 30.61 210.00)  Ml+s 0.00 ( 88.94 210.01)
 Sum of MulP: up   =    13.00000 down          =    13.00000
              total=    26.00000 ideal(neutral)=    26.00000
<DFT>  Total Spin Moment    (muB)  0.000000000   Angles    0.011169294   177.812637214
<DFT>  Total Orbital Moment (muB)  0.000000015   Angles    0.000397861    89.040270232
<DFT>  Total Moment         (muB)  0.000000015   Angles    0.000438342   114.683599089
<DFT>  Mixing_weight= 0.186042411778
<DFT>  Uele   =  -20.489339157982  dUele     =   1.327312096755
<DFT>  NormRD =    0.221835776852  Criterion =   0.000000000100

******************* MD= 1  SCF= 9 *******************
<Poisson>  Poisson's equation using FFT...
<Set_Hamiltonian>  Hamiltonian matrix for VNA+dVH+Vxc...
<Band>  Solving the eigenvalue problem...
 KGrids1:  -0.45000  -0.35000  -0.25000  -0.15000  -0.05000   0.05000   0.15000   0.25000   0.35000   0.45000 
 KGrids2:  -0.45000  -0.35000  -0.25000  -0.15000  -0.05000   0.05000   0.15000   0.25000   0.35000   0.45000 
 KGrids3:   0.00000 
<Band_DFT>  Eigen, time=0.266998
<Band_DFT>  DM, time=0.524927
    1   Mo  MulP 6.73 6.73 sum 13.46 diff  0.00 (179.89 265.11)  Ml 0.00 (  0.00  13.69)  Ml+s 0.00 (179.83 265.15)
    2   Se  MulP 3.13 3.13 sum  6.27 diff  0.00 ( 89.19  30.01)  Ml 0.00 ( 26.35  30.00)  Ml+s 0.00 ( 89.17  30.01)
    3   Se  MulP 3.13 3.13 sum  6.27 diff  0.00 ( 89.19 210.00)  Ml 0.00 ( 26.35 210.00)  Ml+s 0.00 ( 89.17 210.00)
 Sum of MulP: up   =    13.00000 down          =    13.00000
              total=    26.00000 ideal(neutral)=    26.00000
<DFT>  Total Spin Moment    (muB)  0.000000000   Angles  179.994340109     0.000000000
<DFT>  Total Orbital Moment (muB)  0.000000016   Angles    0.000117954    23.905478419
<DFT>  Total Moment         (muB)  0.000000016   Angles    0.000163640    17.130698184
<DFT>  Mixing_weight= 0.186042411778
<DFT>  Uele   =  -20.234263969219  dUele     =   0.255075188763
<DFT>  NormRD =    0.117295146593  Criterion =   0.000000000100

******************* MD= 1  SCF=10 *******************
<Poisson>  Poisson's equation using FFT...
<Set_Hamiltonian>  Hamiltonian matrix for VNA+dVH+Vxc...
<Band>  Solving the eigenvalue problem...
 KGrids1:  -0.45000  -0.35000  -0.25000  -0.15000  -0.05000   0.05000   0.15000   0.25000   0.35000   0.45000 
 KGrids2:  -0.45000  -0.35000  -0.25000  -0.15000  -0.05000   0.05000   0.15000   0.25000   0.35000   0.45000 
 KGrids3:   0.00000 
<Band_DFT>  Eigen, time=0.266539
<Band_DFT>  DM, time=0.529574
    1   Mo  MulP 6.77 6.77 sum 13.54 diff  0.00 (179.92 -60.74)  Ml 0.00 (  0.00 204.28)  Ml+s 0.00 (179.86 -60.75)
    2   Se  MulP 3.11 3.11 sum  6.23 diff  0.00 ( 89.23  30.01)  Ml 0.00 ( 35.49  30.00)  Ml+s 0.00 ( 89.22  30.01)
    3   Se  MulP 3.11 3.11 sum  6.23 diff  0.00 ( 89.23 210.00)  Ml 0.00 ( 35.49 210.00)  Ml+s 0.00 ( 89.22 210.00)
 Sum of MulP: up   =    13.00000 down          =    13.00000
              total=    26.00000 ideal(neutral)=    26.00000
<DFT>  Total Spin Moment    (muB)  0.000000000   Angles  179.998418914     0.000000000
<DFT>  Total Orbital Moment (muB)  0.000000015   Angles    0.000013060     0.000000000
<DFT>  Total Moment         (muB)  0.000000015   Angles    0.000018725     0.000000000
<DFT>  Mixing_weight= 0.186042411778
<DFT>  Uele   =  -20.361535476748  dUele     =   0.127271507529
<DFT>  NormRD =    0.081408305825  Criterion =   0.000000000100

******************* MD= 1  SCF=11 *******************
<Poisson>  Poisson's equation using FFT...
<Set_Hamiltonian>  Hamiltonian matrix for VNA+dVH+Vxc...
<Band>  Solving the eigenvalue problem...
 KGrids1:  -0.45000  -0.35000  -0.25000  -0.15000  -0.05000   0.05000   0.15000   0.25000   0.35000   0.45000 
 KGrids2:  -0.45000  -0.35000  -0.25000  -0.15000  -0.05000   0.05000   0.15000   0.25000   0.35000   0.45000 
 KGrids3:   0.00000 
<Band_DFT>  Eigen, time=0.266659
<Band_DFT>  DM, time=0.524749
    1   Mo  MulP 6.78 6.78 sum 13.57 diff  0.00 (179.36 220.12)  Ml 0.00 (  0.00  43.54)  Ml+s 0.00 (178.55 220.12)
    2   Se  MulP 3.11 3.11 sum  6.22 diff  0.00 ( 89.45  30.01)  Ml 0.00 ( 47.66  30.00)  Ml+s 0.00 ( 89.43  30.01)
    3   Se  MulP 3.11 3.11 sum  6.22 diff  0.00 ( 89.45 210.00)  Ml 0.00 ( 47.67 210.00)  Ml+s 0.00 ( 89.43 210.00)
 Sum of MulP: up   =    13.00000 down          =    13.00000
              total=    26.00000 ideal(neutral)=    26.00000
<DFT>  Total Spin Moment    (muB)  0.000000000   Angles    0.024210079     0.000000000
<DFT>  Total Orbital Moment (muB)  0.000000014   Angles    0.000189405    34.575418595
<DFT>  Total Moment         (muB)  0.000000014   Angles    0.000250566    25.322568247
<DFT>  Mixing_weight= 0.186042411778
<DFT>  Uele   =  -20.375450476842  dUele     =   0.013915000094
<DFT>  NormRD =    0.049244694734  Criterion =   0.000000000100

******************* MD= 1  SCF=12 *******************
<Poisson>  Poisson's equation using FFT...
<Set_Hamiltonian>  Hamiltonian matrix for VNA+dVH+Vxc...
<Band>  Solving the eigenvalue problem...
 KGrids1:  -0.45000  -0.35000  -0.25000  -0.15000  -0.05000   0.05000   0.15000   0.25000   0.35000   0.45000 
 KGrids2:  -0.45000  -0.35000  -0.25000  -0.15000  -0.05000   0.05000   0.15000   0.25000   0.35000   0.45000 
 KGrids3:   0.00000 
<Band_DFT>  Eigen, time=0.269130
<Band_DFT>  DM, time=0.527382
    1   Mo  MulP 6.79 6.79 sum 13.58 diff  0.00 (174.27  28.39)  Ml 0.00 (  0.00 209.92)  Ml+s 0.00 (155.62  28.39)
    2   Se  MulP 3.11 3.11 sum  6.21 diff  0.00 ( 89.61  30.01)  Ml 0.00 ( 60.31  30.00)  Ml+s 0.00 ( 89.60  30.01)
    3   Se  MulP 3.11 3.11 sum  6.21 diff  0.00 ( 89.61 210.00)  Ml 0.00 ( 60.15 210.00)  Ml+s 0.00 ( 89.60 210.00)
 Sum of MulP: up   =    13.00000 down          =    13.00000
              total=    26.00000 ideal(neutral)=    26.00000
<DFT>  Total Spin Moment    (muB)  0.000000000   Angles    0.015827338   211.717673375
<DFT>  Total Orbital Moment (muB)  0.000000014   Angles    0.002293546   210.055845394
<DFT>  Total Moment         (muB)  0.000000014   Angles    0.002400934   210.142800041
<DFT>  Mixing_weight= 0.186042411778
<DFT>  Uele   =  -20.383760467092  dUele     =   0.008309990250
<DFT>  NormRD =    0.030151702943  Criterion =   0.000000000100

******************* MD= 1  SCF=13 *******************
<Poisson>  Poisson's equation using FFT...
<Set_Hamiltonian>  Hamiltonian matrix for VNA+dVH+Vxc...
<Band>  Solving the eigenvalue problem...
 KGrids1:  -0.45000  -0.35000  -0.25000  -0.15000  -0.05000   0.05000   0.15000   0.25000   0.35000   0.45000 
 KGrids2:  -0.45000  -0.35000  -0.25000  -0.15000  -0.05000   0.05000   0.15000   0.25000   0.35000   0.45000 
 KGrids3:   0.00000 
<Band_DFT>  Eigen, time=0.267906
<Band_DFT>  DM, time=0.523844
    1   Mo  MulP 6.80 6.80 sum 13.60 diff  0.00 ( 99.73 210.11)  Ml 0.00 (  0.06  30.01)  Ml+s 0.00 ( 70.55 210.11)
    2   Se  MulP 3.11 3.11 sum  6.21 diff  0.00 ( 89.90  30.01)  Ml 0.00 ( 86.94  30.00)  Ml+s 0.00 ( 89.90  30.01)
    3   Se  MulP 3.10 3.10 sum  6.19 diff  0.00 ( 89.90 210.00)  Ml 0.00 ( 89.26 210.00)  Ml+s 0.00 ( 89.90 210.00)
 Sum of MulP: up   =    13.00000 down          =    13.00000
              total=    26.00000 ideal(neutral)=    26.00000
<DFT>  Total Spin Moment    (muB)  0.000000000   Angles    0.269374954    30.208349871
<DFT>  Total Orbital Moment (muB)  0.000000013   Angles    0.035984999    29.992301354
<DFT>  Total Moment         (muB)  0.000000013   Angles    0.040135954    30.018090827
<DFT>  Mixing_weight= 0.186042411778
<DFT>  Uele   =  -20.397399540541  dUele     =   0.013639073449
<DFT>  NormRD =    0.011124046444  Criterion =   0.000000000100

******************* MD= 1  SCF=14 *******************
<Poisson>  Poisson's equation using FFT...
<Set_Hamiltonian>  Hamiltonian matrix for VNA+dVH+Vxc...
<Band>  Solving the eigenvalue problem...
 KGrids1:  -0.45000  -0.35000  -0.25000  -0.15000  -0.05000   0.05000   0.15000   0.25000   0.35000   0.45000 
 KGrids2:  -0.45000  -0.35000  -0.25000  -0.15000  -0.05000   0.05000   0.15000   0.25000   0.35000   0.45000 
 KGrids3:   0.00000 
<Band_DFT>  Eigen, time=0.266454
<Band_DFT>  DM, time=0.524878
    1   Mo  MulP 6.80 6.80 sum 13.60 diff  0.00 (176.29  13.57)  Ml 0.00 (  0.00 210.62)  Ml+s 0.00 (  0.93  13.56)
    2   Se  MulP 3.10 3.10 sum  6.20 diff  0.00 ( 89.94  30.01)  Ml 0.00 ( 91.60  30.00)  Ml+s 0.00 ( 89.94  30.01)
    3   Se  MulP 3.10 3.10 sum  6.20 diff  0.00 ( 89.94 210.00)  Ml 0.00 ( 91.58 210.00)  Ml+s 0.00 ( 89.94 210.00)
 Sum of MulP: up   =    13.00000 down          =    13.00000
              total=    26.00000 ideal(neutral)=    26.00000
<DFT>  Total Spin Moment    (muB)  0.000000000   Angles    0.003653469     0.000000000
<DFT>  Total Orbital Moment (muB)  0.000000013   Angles    0.000459996   216.174567531
<DFT>  Total Moment         (muB)  0.000000013   Angles    0.000397534   222.071280661
<DFT>  Mixing_weight= 0.186042411778
<DFT>  Uele   =  -20.397603839153  dUele     =   0.000204298611
<DFT>  NormRD =    0.000149287408  Criterion =   0.000000000100

******************* MD= 1  SCF=15 *******************
<Poisson>  Poisson's equation using FFT...
<Set_Hamiltonian>  Hamiltonian matrix for VNA+dVH+Vxc...
<Band>  Solving the eigenvalue problem...
 KGrids1:  -0.45000  -0.35000  -0.25000  -0.15000  -0.05000   0.05000   0.15000   0.25000   0.35000   0.45000 
 KGrids2:  -0.45000  -0.35000  -0.25000  -0.15000  -0.05000   0.05000   0.15000   0.25000   0.35000   0.45000 
 KGrids3:   0.00000 
<Band_DFT>  Eigen, time=0.266245
<Band_DFT>  DM, time=0.523552
    1   Mo  MulP 6.80 6.80 sum 13.60 diff  0.00 (175.67 258.90)  Ml 0.00 (  0.00  25.26)  Ml+s 0.00 (  0.30 258.91)
    2   Se  MulP 3.10 3.10 sum  6.20 diff  0.00 ( 89.97  30.01)  Ml 0.00 ( 95.20  30.00)  Ml+s 0.00 ( 89.98  30.01)
    3   Se  MulP 3.10 3.10 sum  6.20 diff  0.00 ( 89.97 210.00)  Ml 0.00 ( 95.21 210.00)  Ml+s 0.00 ( 89.98 210.00)
 Sum of MulP: up   =    13.00000 down          =    13.00000
              total=    26.00000 ideal(neutral)=    26.00000
<DFT>  Total Spin Moment    (muB)  0.000000000   Angles    0.000413636     0.000000000
<DFT>  Total Orbital Moment (muB)  0.000000013   Angles    0.000083913    16.895275395
<DFT>  Total Moment         (muB)  0.000000013   Angles    0.000090234    15.356445643
<DFT>  Mixing_weight= 0.186042411778
<DFT>  Uele   =  -20.397775671206  dUele     =   0.000171832053
<DFT>  NormRD =    0.000163387643  Criterion =   0.000000000100

******************* MD= 1  SCF=16 *******************
<Poisson>  Poisson's equation using FFT...
<Set_Hamiltonian>  Hamiltonian matrix for VNA+dVH+Vxc...
<Band>  Solving the eigenvalue problem...
 KGrids1:  -0.45000  -0.35000  -0.25000  -0.15000  -0.05000   0.05000   0.15000   0.25000   0.35000   0.45000 
 KGrids2:  -0.45000  -0.35000  -0.25000  -0.15000  -0.05000   0.05000   0.15000   0.25000   0.35000   0.45000 
 KGrids3:   0.00000 
<Band_DFT>  Eigen, time=0.266889
<Band_DFT>  DM, time=0.524601
    1   Mo  MulP 6.80 6.80 sum 13.60 diff  0.00 (170.32 255.23)  Ml 0.00 (  0.00  32.87)  Ml+s 0.00 (  0.31 255.23)
    2   Se  MulP 3.10 3.10 sum  6.20 diff  0.00 ( 89.99  30.01)  Ml 0.00 ( 96.04  30.00)  Ml+s 0.00 ( 89.99  30.01)
    3   Se  MulP 3.10 3.10 sum  6.20 diff  0.00 ( 89.99 210.00)  Ml 0.00 ( 96.05 210.00)  Ml+s 0.00 ( 89.99 210.00)
 Sum of MulP: up   =    13.00000 down          =    13.00000
              total=    26.00000 ideal(neutral)=    26.00000
<DFT>  Total Spin Moment    (muB)  0.000000000   Angles    0.000370934     0.000000000
<DFT>  Total Orbital Moment (muB)  0.000000013   Angles    0.000034480     0.000000000
<DFT>  Total Moment         (muB)  0.000000013   Angles    0.000041327     0.000000000
<DFT>  Mixing_weight= 0.186042411778
<DFT>  Uele   =  -20.397567376226  dUele     =   0.000208294980
<DFT>  NormRD =    0.000045363906  Criterion =   0.000000000100

******************* MD= 1  SCF=17 *******************
<Poisson>  Poisson's equation using FFT...
<Set_Hamiltonian>  Hamiltonian matrix for VNA+dVH+Vxc...
<Band>  Solving the eigenvalue problem...
 KGrids1:  -0.45000  -0.35000  -0.25000  -0.15000  -0.05000   0.05000   0.15000   0.25000   0.35000   0.45000 
 KGrids2:  -0.45000  -0.35000  -0.25000  -0.15000  -0.05000   0.05000   0.15000   0.25000   0.35000   0.45000 
 KGrids3:   0.00000 
<Band_DFT>  Eigen, time=0.267210
<Band_DFT>  DM, time=0.525352
    1   Mo  MulP 6.80 6.80 sum 13.60 diff  0.00 ( 82.51 264.68)  Ml 0.00 (  0.00   0.00)  Ml+s 0.00 (  0.26 264.68)
    2   Se  MulP 3.10 3.10 sum  6.20 diff  0.00 ( 89.99  30.01)  Ml 0.00 ( 96.80  30.00)  Ml+s 0.00 ( 90.00  30.01)
    3   Se  MulP 3.10 3.10 sum  6.20 diff  0.00 ( 89.99 210.00)  Ml 0.00 ( 96.80 210.00)  Ml+s 0.00 ( 90.00 210.00)
 Sum of MulP: up   =    13.00000 down          =    13.00000
              total=    26.00000 ideal(neutral)=    26.00000
<DFT>  Total Spin Moment    (muB)  0.000000000   Angles    0.000409282     0.000000000
<DFT>  Total Orbital Moment (muB)  0.000000013   Angles    0.000018686     0.000000000
<DFT>  Total Moment         (muB)  0.000000013   Angles    0.000026700     0.000000000
<DFT>  Mixing_weight= 0.186042411778
<DFT>  Uele   =  -20.397455812004  dUele     =   0.000111564222
<DFT>  NormRD =    0.000042650358  Criterion =   0.000000000100

******************* MD= 1  SCF=18 *******************
<Poisson>  Poisson's equation using FFT...
<Set_Hamiltonian>  Hamiltonian matrix for VNA+dVH+Vxc...
<Band>  Solving the eigenvalue problem...
 KGrids1:  -0.45000  -0.35000  -0.25000  -0.15000  -0.05000   0.05000   0.15000   0.25000   0.35000   0.45000 
 KGrids2:  -0.45000  -0.35000  -0.25000  -0.15000  -0.05000   0.05000   0.15000   0.25000   0.35000   0.45000 
 KGrids3:   0.00000 
<Band_DFT>  Eigen, time=0.269837
<Band_DFT>  DM, time=0.524568
    1   Mo  MulP 6.80 6.80 sum 13.60 diff  0.00 ( 29.06 266.27)  Ml 0.00 (  0.00   0.00)  Ml+s 0.00 (  0.26 266.27)
    2   Se  MulP 3.10 3.10 sum  6.20 diff  0.00 ( 90.00  30.01)  Ml 0.00 ( 96.99  30.00)  Ml+s 0.00 ( 90.00  30.01)
    3   Se  MulP 3.10 3.10 sum  6.20 diff  0.00 ( 90.00 210.00)  Ml 0.00 ( 96.99 210.00)  Ml+s 0.00 ( 90.00 210.00)
 Sum of MulP: up   =    13.00000 down          =    13.00000
              total=    26.00000 ideal(neutral)=    26.00000
<DFT>  Total Spin Moment    (muB)  0.000000000   Angles    0.000340834     0.000000000
<DFT>  Total Orbital Moment (muB)  0.000000013   Angles    0.000019674     0.000000000
<DFT>  Total Moment         (muB)  0.000000013   Angles    0.000026287     0.000000000
<DFT>  Mixing_weight= 0.186042411778
<DFT>  Uele   =  -20.397577439672  dUele     =   0.000121627669
<DFT>  NormRD =    0.000011012473  Criterion =   0.000000000100

******************* MD= 1  SCF=19 *******************
<Poisson>  Poisson's equation using FFT...
<Set_Hamiltonian>  Hamiltonian matrix for VNA+dVH+Vxc...
<Band>  Solving the eigenvalue problem...
 KGrids1:  -0.45000  -0.35000  -0.25000  -0.15000  -0.05000   0.05000   0.15000   0.25000   0.35000   0.45000 
 KGrids2:  -0.45000  -0.35000  -0.25000  -0.15000  -0.05000   0.05000   0.15000   0.25000   0.35000   0.45000 
 KGrids3:   0.00000 
<Band_DFT>  Eigen, time=0.366824
<Band_DFT>  DM, time=0.805531
    1   Mo  MulP 6.80 6.80 sum 13.60 diff  0.00 ( 11.16 268.46)  Ml 0.00 (  0.00   0.00)  Ml+s 0.00 (  0.25 268.46)
    2   Se  MulP 3.10 3.10 sum  6.20 diff  0.00 ( 90.00  30.01)  Ml 0.00 ( 97.33  30.00)  Ml+s 0.00 ( 90.00  30.01)
    3   Se  MulP 3.10 3.10 sum  6.20 diff  0.00 ( 90.00 210.00)  Ml 0.00 ( 97.33 210.00)  Ml+s 0.00 ( 90.00 210.00)
 Sum of MulP: up   =    13.00000 down          =    13.00000
              total=    26.00000 ideal(neutral)=    26.00000
<DFT>  Total Spin Moment    (muB)  0.000000000   Angles    0.000064187     0.000000000
<DFT>  Total Orbital Moment (muB)  0.000000013   Angles    0.000013116     0.000000000
<DFT>  Total Moment         (muB)  0.000000013   Angles    0.000014158     0.000000000
<DFT>  Mixing_weight= 0.186042411778
<DFT>  Uele   =  -20.397561084190  dUele     =   0.000016355482
<DFT>  NormRD =    0.000000458692  Criterion =   0.000000000100

******************* MD= 1  SCF=20 *******************
<Poisson>  Poisson's equation using FFT...
<Set_Hamiltonian>  Hamiltonian matrix for VNA+dVH+Vxc...
<Band>  Solving the eigenvalue problem...
 KGrids1:  -0.45000  -0.35000  -0.25000  -0.15000  -0.05000   0.05000   0.15000   0.25000   0.35000   0.45000 
 KGrids2:  -0.45000  -0.35000  -0.25000  -0.15000  -0.05000   0.05000   0.15000   0.25000   0.35000   0.45000 
 KGrids3:   0.00000 
<Band_DFT>  Eigen, time=0.267683
<Band_DFT>  DM, time=0.526574
    1   Mo  MulP 6.80 6.80 sum 13.60 diff  0.00 (  7.48 268.79)  Ml 0.00 (  0.00   0.00)  Ml+s 0.00 (  0.24 268.79)
    2   Se  MulP 3.10 3.10 sum  6.20 diff  0.00 ( 90.00  30.01)  Ml 0.00 ( 97.57  30.00)  Ml+s 0.00 ( 90.01  30.01)
    3   Se  MulP 3.10 3.10 sum  6.20 diff  0.00 ( 90.00 210.00)  Ml 0.00 ( 97.57 210.00)  Ml+s 0.00 ( 90.01 210.00)
 Sum of MulP: up   =    13.00000 down          =    13.00000
              total=    26.00000 ideal(neutral)=    26.00000
<DFT>  Total Spin Moment    (muB)  0.000000000   Angles    0.000171117     0.000000000
<DFT>  Total Orbital Moment (muB)  0.000000013   Angles    0.000011768     0.000000000
<DFT>  Total Moment         (muB)  0.000000013   Angles    0.000015056     0.000000000
<DFT>  Mixing_weight= 0.186042411778
<DFT>  Uele   =  -20.397561583451  dUele     =   0.000000499260
<DFT>  NormRD =    0.000000101513  Criterion =   0.000000000100

******************* MD= 1  SCF=21 *******************
<Poisson>  Poisson's equation using FFT...
<Set_Hamiltonian>  Hamiltonian matrix for VNA+dVH+Vxc...
<Band>  Solving the eigenvalue problem...
 KGrids1:  -0.45000  -0.35000  -0.25000  -0.15000  -0.05000   0.05000   0.15000   0.25000   0.35000   0.45000 
 KGrids2:  -0.45000  -0.35000  -0.25000  -0.15000  -0.05000   0.05000   0.15000   0.25000   0.35000   0.45000 
 KGrids3:   0.00000 
<Band_DFT>  Eigen, time=0.272952
<Band_DFT>  DM, time=0.539447
    1   Mo  MulP 6.80 6.80 sum 13.60 diff  0.00 (  6.19 269.10)  Ml 0.00 (  0.00   0.00)  Ml+s 0.00 (  0.24 269.10)
    2   Se  MulP 3.10 3.10 sum  6.20 diff  0.00 ( 90.01  30.01)  Ml 0.00 ( 97.72  30.00)  Ml+s 0.00 ( 90.01  30.01)
    3   Se  MulP 3.10 3.10 sum  6.20 diff  0.00 ( 90.01 210.00)  Ml 0.00 ( 97.72 210.00)  Ml+s 0.00 ( 90.01 210.00)
 Sum of MulP: up   =    13.00000 down          =    13.00000
              total=    26.00000 ideal(neutral)=    26.00000
<DFT>  Total Spin Moment    (muB)  0.000000000   Angles    0.000221501     0.000000000
<DFT>  Total Orbital Moment (muB)  0.000000013   Angles    0.000013820     0.000000000
<DFT>  Total Moment         (muB)  0.000000013   Angles    0.000018131     0.000000000
<DFT>  Mixing_weight= 0.186042411778
<DFT>  Uele   =  -20.397561680508  dUele     =   0.000000097057
<DFT>  NormRD =    0.000000136693  Criterion =   0.000000000100

******************* MD= 1  SCF=22 *******************
<Poisson>  Poisson's equation using FFT...
<Set_Hamiltonian>  Hamiltonian matrix for VNA+dVH+Vxc...
<Band>  Solving the eigenvalue problem...
 KGrids1:  -0.45000  -0.35000  -0.25000  -0.15000  -0.05000   0.05000   0.15000   0.25000   0.35000   0.45000 
 KGrids2:  -0.45000  -0.35000  -0.25000  -0.15000  -0.05000   0.05000   0.15000   0.25000   0.35000   0.45000 
 KGrids3:   0.00000 
<Band_DFT>  Eigen, time=0.266644
<Band_DFT>  DM, time=0.523721
    1   Mo  MulP 6.80 6.80 sum 13.60 diff  0.00 (  5.96 268.83)  Ml 0.00 (  0.00   0.00)  Ml+s 0.00 (  0.24 268.83)
    2   Se  MulP 3.10 3.10 sum  6.20 diff  0.00 ( 90.01  30.01)  Ml 0.00 ( 97.75  30.00)  Ml+s 0.00 ( 90.01  30.01)
    3   Se  MulP 3.10 3.10 sum  6.20 diff  0.00 ( 90.01 210.00)  Ml 0.00 ( 97.75 210.00)  Ml+s 0.00 ( 90.01 210.00)
 Sum of MulP: up   =    13.00000 down          =    13.00000
              total=    26.00000 ideal(neutral)=    26.00000
<DFT>  Total Spin Moment    (muB)  0.000000000   Angles    0.000308249     0.000000000
<DFT>  Total Orbital Moment (muB)  0.000000013   Angles    0.000014055     0.000000000
<DFT>  Total Moment         (muB)  0.000000013   Angles    0.000020186     0.000000000
<DFT>  Mixing_weight= 0.186042411778
<DFT>  Uele   =  -20.397561644416  dUele     =   0.000000036092
<DFT>  NormRD =    0.000000010231  Criterion =   0.000000000100

******************* MD= 1  SCF=23 *******************
<Poisson>  Poisson's equation using FFT...
<Set_Hamiltonian>  Hamiltonian matrix for VNA+dVH+Vxc...
<Band>  Solving the eigenvalue problem...
 KGrids1:  -0.45000  -0.35000  -0.25000  -0.15000  -0.05000   0.05000   0.15000   0.25000   0.35000   0.45000 
 KGrids2:  -0.45000  -0.35000  -0.25000  -0.15000  -0.05000   0.05000   0.15000   0.25000   0.35000   0.45000 
 KGrids3:   0.00000 
<Band_DFT>  Eigen, time=0.267825
<Band_DFT>  DM, time=0.525330
    1   Mo  MulP 6.80 6.80 sum 13.60 diff  0.00 (  5.60 268.84)  Ml 0.00 (  0.00   0.00)  Ml+s 0.00 (  0.24 268.84)
    2   Se  MulP 3.10 3.10 sum  6.20 diff  0.00 ( 90.01  30.01)  Ml 0.00 ( 97.81  30.00)  Ml+s 0.00 ( 90.01  30.01)
    3   Se  MulP 3.10 3.10 sum  6.20 diff  0.00 ( 90.01 210.00)  Ml 0.00 ( 97.81 210.00)  Ml+s 0.00 ( 90.01 210.00)
 Sum of MulP: up   =    13.00000 down          =    13.00000
              total=    26.00000 ideal(neutral)=    26.00000
<DFT>  Total Spin Moment    (muB)  0.000000000   Angles    0.000137598     0.000000000
<DFT>  Total Orbital Moment (muB)  0.000000013   Angles    0.000011423     0.000000000
<DFT>  Total Moment         (muB)  0.000000013   Angles    0.000014055     0.000000000
<DFT>  Mixing_weight= 0.186042411778
<DFT>  Uele   =  -20.397561629983  dUele     =   0.000000014434
<DFT>  NormRD =    0.000000001419  Criterion =   0.000000000100

******************* MD= 1  SCF=24 *******************
<Poisson>  Poisson's equation using FFT...
<Set_Hamiltonian>  Hamiltonian matrix for VNA+dVH+Vxc...
<Band>  Solving the eigenvalue problem...
 KGrids1:  -0.45000  -0.35000  -0.25000  -0.15000  -0.05000   0.05000   0.15000   0.25000   0.35000   0.45000 
 KGrids2:  -0.45000  -0.35000  -0.25000  -0.15000  -0.05000   0.05000   0.15000   0.25000   0.35000   0.45000 
 KGrids3:   0.00000 
<Band_DFT>  Eigen, time=0.267879
<Band_DFT>  DM, time=0.525670
    1   Mo  MulP 6.80 6.80 sum 13.60 diff  0.00 (  5.39 268.84)  Ml 0.00 (  0.00   0.00)  Ml+s 0.00 (  0.24 268.84)
    2   Se  MulP 3.10 3.10 sum  6.20 diff  0.00 ( 90.01  30.01)  Ml 0.00 ( 97.84  30.00)  Ml+s 0.00 ( 90.01  30.01)
    3   Se  MulP 3.10 3.10 sum  6.20 diff  0.00 ( 90.01 210.00)  Ml 0.00 ( 97.84 210.00)  Ml+s 0.00 ( 90.01 210.00)
 Sum of MulP: up   =    13.00000 down          =    13.00000
              total=    26.00000 ideal(neutral)=    26.00000
<DFT>  Total Spin Moment    (muB)  0.000000000   Angles    0.000170678     0.000000000
<DFT>  Total Orbital Moment (muB)  0.000000013   Angles    0.000013925     0.000000000
<DFT>  Total Moment         (muB)  0.000000013   Angles    0.000017203     0.000000000
<DFT>  Mixing_weight= 0.186042411778
<DFT>  Uele   =  -20.397561631144  dUele     =   0.000000001161
<DFT>  NormRD =    0.000000000546  Criterion =   0.000000000100

******************* MD= 1  SCF=25 *******************
<Poisson>  Poisson's equation using FFT...
<Set_Hamiltonian>  Hamiltonian matrix for VNA+dVH+Vxc...
<Band>  Solving the eigenvalue problem...
 KGrids1:  -0.45000  -0.35000  -0.25000  -0.15000  -0.05000   0.05000   0.15000   0.25000   0.35000   0.45000 
 KGrids2:  -0.45000  -0.35000  -0.25000  -0.15000  -0.05000   0.05000   0.15000   0.25000   0.35000   0.45000 
 KGrids3:   0.00000 
<Band_DFT>  Eigen, time=0.267788
<Band_DFT>  DM, time=0.527266
    1   Mo  MulP 6.80 6.80 sum 13.60 diff  0.00 (  5.26 268.84)  Ml 0.00 (  0.00   0.00)  Ml+s 0.00 (  0.24 268.84)
    2   Se  MulP 3.10 3.10 sum  6.20 diff  0.00 ( 90.01  30.01)  Ml 0.00 ( 97.86  30.00)  Ml+s 0.00 ( 90.01  30.01)
    3   Se  MulP 3.10 3.10 sum  6.20 diff  0.00 ( 90.01 210.00)  Ml 0.00 ( 97.86 210.00)  Ml+s 0.00 ( 90.01 210.00)
 Sum of MulP: up   =    13.00000 down          =    13.00000
              total=    26.00000 ideal(neutral)=    26.00000
<DFT>  Total Spin Moment    (muB)  0.000000000   Angles    0.000140634     0.000000000
<DFT>  Total Orbital Moment (muB)  0.000000013   Angles    0.000013060     0.000000000
<DFT>  Total Moment         (muB)  0.000000013   Angles    0.000015720     0.000000000
<DFT>  Mixing_weight= 0.186042411778
<DFT>  Uele   =  -20.397561632088  dUele     =   0.000000000945
<DFT>  NormRD =    0.000000000289  Criterion =   0.000000000100

******************* MD= 1  SCF=26 *******************
<Poisson>  Poisson's equation using FFT...
<Set_Hamiltonian>  Hamiltonian matrix for VNA+dVH+Vxc...
<Band>  Solving the eigenvalue problem...
 KGrids1:  -0.45000  -0.35000  -0.25000  -0.15000  -0.05000   0.05000   0.15000   0.25000   0.35000   0.45000 
 KGrids2:  -0.45000  -0.35000  -0.25000  -0.15000  -0.05000   0.05000   0.15000   0.25000   0.35000   0.45000 
 KGrids3:   0.00000 
<Band_DFT>  Eigen, time=0.267699
<Band_DFT>  DM, time=0.524981
    1   Mo  MulP 6.80 6.80 sum 13.60 diff  0.00 (  5.20 268.84)  Ml 0.00 (  0.00   0.00)  Ml+s 0.00 (  0.24 268.84)
    2   Se  MulP 3.10 3.10 sum  6.20 diff  0.00 ( 90.01  30.01)  Ml 0.00 ( 97.87  30.00)  Ml+s 0.00 ( 90.01  30.01)
    3   Se  MulP 3.10 3.10 sum  6.20 diff  0.00 ( 90.01 210.00)  Ml 0.00 ( 97.87 210.00)  Ml+s 0.00 ( 90.01 210.00)
 Sum of MulP: up   =    13.00000 down          =    13.00000
              total=    26.00000 ideal(neutral)=    26.00000
<DFT>  Total Spin Moment    (muB)  0.000000000   Angles    0.000363329     0.000000000
<DFT>  Total Orbital Moment (muB)  0.000000013   Angles    0.000014886     0.000000000
<DFT>  Total Moment         (muB)  0.000000013   Angles    0.000022149     0.000000000
<DFT>  Mixing_weight= 0.186042411778
<DFT>  Uele   =  -20.397561631376  dUele     =   0.000000000712
<DFT>  NormRD =    0.000000000067  Criterion =   0.000000000100

******************* MD= 1  SCF=27 *******************
<Poisson>  Poisson's equation using FFT...
<Set_Hamiltonian>  Hamiltonian matrix for VNA+dVH+Vxc...
<Band>  Solving the eigenvalue problem...
 KGrids1:  -0.45000  -0.35000  -0.25000  -0.15000  -0.05000   0.05000   0.15000   0.25000   0.35000   0.45000 
 KGrids2:  -0.45000  -0.35000  -0.25000  -0.15000  -0.05000   0.05000   0.15000   0.25000   0.35000   0.45000 
 KGrids3:   0.00000 
<Band_DFT>  Eigen, time=0.266637
<Band_DFT>  DM, time=0.525008
    1   Mo  MulP 6.80 6.80 sum 13.60 diff  0.00 (  5.13 268.84)  Ml 0.00 (  0.00   0.00)  Ml+s 0.00 (  0.24 268.84)
    2   Se  MulP 3.10 3.10 sum  6.20 diff  0.00 ( 90.01  30.01)  Ml 0.00 ( 97.88  30.00)  Ml+s 0.00 ( 90.01  30.01)
    3   Se  MulP 3.10 3.10 sum  6.20 diff  0.00 ( 90.01 210.00)  Ml 0.00 ( 97.88 210.00)  Ml+s 0.00 ( 90.01 210.00)
 Sum of MulP: up   =    13.00000 down          =    13.00000
              total=    26.00000 ideal(neutral)=    26.00000
<DFT>  Total Spin Moment    (muB)  0.000000000   Angles    0.000298438     0.000000000
<DFT>  Total Orbital Moment (muB)  0.000000013   Angles    0.000014388     0.000000000
<DFT>  Total Moment         (muB)  0.000000013   Angles    0.000020312     0.000000000
<DFT>  Mixing_weight= 0.186042411778
<DFT>  Uele   =  -20.397561631423  dUele     =   0.000000000047
<DFT>  NormRD =    0.000000000030  Criterion =   0.000000000100
<MD= 1>  Force calculation
  Force calculation #1
  Force calculation #2
  Force calculation #3
  Force calculation #4
  Force calculation #5
<MD= 1>  Total Energy
  Force calculation #6
  Force calculation #7

*******************************************************
                  Dipole moment (Debye)                 
*******************************************************

 Absolute D       10.92292463

                      Dx                Dy                Dz
 Total              9.45953021        5.46146229       -0.00054587
 Core             342.63993429      197.82325830     6244.16883818
 Electron        -333.18040409     -192.36179601    -6244.16938405
 Back ground       -0.00000000       -0.00000000       -0.00000000

*******************************************************
                Total Energy (Hartree) at MD = 1        
*******************************************************

  Uele  =     -20.397561631423

  Ukin  =      28.040893493790
  UH0   =    -537.658490139638
  UH1   =       0.027665174157
  Una   =     -37.874807191779
  Unl   =       6.683521851574
  Uxc0  =      -7.753160078117
  Uxc1  =      -7.753160073865
  Ucore =     466.298011569373
  Uhub  =       0.000000000000
  Ucs   =       0.000000000000
  Uzs   =       0.000000000000
  Uzo   =       0.000000000000
  Uef   =       0.000000000000
  UvdW  =       0.000000000000
  Utot  =     -89.989525394506

  Note:

  Utot = Ukin+UH0+UH1+Una+Unl+Uxc0+Uxc1+Ucore+Uhub+Ucs+Uzs+Uzo+Uef+UvdW

  Uele:   band energy
  Ukin:   kinetic energy
  UH0:    electric part of screened Coulomb energy
  UH1:    difference electron-electron Coulomb energy
  Una:    neutral atom potential energy
  Unl:    non-local potential energy
  Uxc0:   exchange-correlation energy for alpha spin
  Uxc1:   exchange-correlation energy for beta spin
  Ucore:  core-core Coulomb energy
  Uhub:   LDA+U energy
  Ucs:    constraint energy for spin orientation
  Uzs:    Zeeman term for spin magnetic moment
  Uzo:    Zeeman term for orbital magnetic moment
  Uef:    electric energy by electric field
  UvdW:   semi-empirical vdW energy 

  (see also PRB 72, 045121(2005) for the energy contributions)


*******************************************************
           Computational times (s) at MD = 1            
*******************************************************

  DFT in total      =   85.00884

  Set_OLP_Kin       =    1.07543
  Set_Nonlocal      =    3.33442
  Set_ProExpn_VNA   =    1.78258
  Set_Hamiltonian   =   34.25308
  Poisson           =    0.69710
  diagonalization   =   22.12761
  Mixing_DM         =    0.22205
  Force             =    4.44824
  Total_Energy      =    0.42616
  Set_Aden_Grid     =    0.14332
  Set_Orbitals_Grid =    0.17323
  Set_Density_Grid  =   15.93495
  RestartFileDFT    =    0.00803
  Mulliken_Charge   =    0.00406
  FFT(2D)_Density   =    0.00000

*******************************************************
             MD or geometry opt. at MD = 1              
*******************************************************

<Steepest_Descent>  SD_scaling= 0.944862991076
<Steepest_Descent>  |Maximum force| (Hartree/Bohr) = 0.029403007738
<Steepest_Descent>  Criterion       (Hartree/Bohr) = 0.000000010000

  atom=  1, XYZ(ang) Fxyz(a.u.)=   1.8773    1.0838   50.0000     0.0000    0.0000   -0.0000
  atom=  2, XYZ(ang) Fxyz(a.u.)=   3.7545    2.1677   48.3278    -0.0000   -0.0000   -0.0294
  atom=  3, XYZ(ang) Fxyz(a.u.)=   3.7545    2.1677   51.6722    -0.0000   -0.0000    0.0294

*******************************************************
        Analysis of neigbors and setting of grids        
*******************************************************


*******************************************************
  Allocation of atoms to proccesors at MD_iter=    2     
*******************************************************

 proc =   0  # of atoms=   1  estimated weight=         1.00000
 proc =   1  # of atoms=   1  estimated weight=         1.00000
 proc =   2  # of atoms=   1  estimated weight=         1.00000
 proc =   3  # of atoms=   0  estimated weight=         0.00000



TFNAN=     110   Average FNAN=  36.66667
TSNAN=       0   Average SNAN=   0.00000
<truncation> CpyCell= 3 ct_AN=   1 FNAN SNAN  36   0
<truncation> CpyCell= 3 ct_AN=   2 FNAN SNAN  37   0
<truncation> CpyCell= 3 ct_AN=   3 FNAN SNAN  37   0
<UCell_Box> Info. of cutoff energy and num. of grids
lattice vectors (bohr)
A  =  7.094992286790,  0.000000000000,  0.000000000000
B  =  3.547496143395,  6.144443560015,  0.000000000000
C  =  0.000000000000,  0.000000000000, 188.972598857892
reciprocal lattice vectors (bohr^-1)
RA =  0.885580287223, -0.511290017217,  0.000000000000
RB =  0.000000000000,  1.022580034434,  0.000000000000
RB =  0.000000000000,  0.000000000000,  0.033249187158
Required cutoff energy (Ryd) for 3D-grids = 200.0000
    Used cutoff energy (Ryd) for 3D-grids = 204.9513, 204.9513, 195.0117
Num. of grids of a-, b-, and c-axes = 28, 28, 840
Cell_Volume =   8238.218809918486 (Bohr^3)
GridVol     =      0.012509443042 (Bohr^3)
Cell vectors (bohr) of the grid cell (gtv)
  gtv_a =  0.253392581671,  0.000000000000,  0.000000000000
  gtv_b =  0.126696290836,  0.219444412858,  0.000000000000
  gtv_c =  0.000000000000,  0.000000000000,  0.224967379593
  |gtv_a| =  0.253392581671
  |gtv_b| =  0.253392581671
  |gtv_c| =  0.224967379593
Num. of grids overlapping with atom    1 = 114870
Num. of grids overlapping with atom    2 = 114906
Num. of grids overlapping with atom    3 = 114906

*******************************************************
             SCF calculation at MD = 2                
*******************************************************

<MD= 2>  Calculation of the overlap matrix
<MD= 2>  Calculation of the nonlocal matrix
<MD= 2>  Calculation of the VNA projector matrix

******************* MD= 2  SCF= 1 *******************
<Restart>  Found restart files
<Poisson>  Poisson's equation using FFT...
<Band>  Solving the eigenvalue problem...
 KGrids1:  -0.45000  -0.35000  -0.25000  -0.15000  -0.05000   0.05000   0.15000   0.25000   0.35000   0.45000 
 KGrids2:  -0.45000  -0.35000  -0.25000  -0.15000  -0.05000   0.05000   0.15000   0.25000   0.35000   0.45000 
 KGrids3:   0.00000 
<Band_DFT>  Eigen, time=0.267387
<Band_DFT>  DM, time=0.530245
    1   Mo  MulP 6.80 6.80 sum 13.60 diff  0.00 (  6.54 269.02)  Ml 0.00 (  0.00   0.00)  Ml+s 0.00 (  0.29 269.03)
    2   Se  MulP 3.10 3.10 sum  6.20 diff  0.00 ( 90.01  30.01)  Ml 0.00 (101.72  30.00)  Ml+s 0.00 ( 90.01  30.01)
    3   Se  MulP 3.10 3.10 sum  6.20 diff  0.00 ( 90.01 210.00)  Ml 0.00 (101.72 210.00)  Ml+s 0.00 ( 90.01 210.00)
 Sum of MulP: up   =    13.00000 down          =    13.00000
              total=    26.00000 ideal(neutral)=    26.00000
<DFT>  Total Spin Moment    (muB)  0.000000000   Angles    0.001313988     0.000000000
<DFT>  Total Orbital Moment (muB)  0.000000011   Angles    0.000013820     0.000000000
<DFT>  Total Moment         (muB)  0.000000011   Angles    0.000032488     0.000000000
<DFT>  Mixing_weight= 0.001000000000
<DFT>  Uele   =  -20.393071377386  dUele     =   1.000000000000
<DFT>  NormRD =    1.000000000000  Criterion =   0.000000000100

******************* MD= 2  SCF= 2 *******************
<Poisson>  Poisson's equation using FFT...
<Set_Hamiltonian>  Hamiltonian matrix for VNA+dVH+Vxc...
<Band>  Solving the eigenvalue problem...
 KGrids1:  -0.45000  -0.35000  -0.25000  -0.15000  -0.05000   0.05000   0.15000   0.25000   0.35000   0.45000 
 KGrids2:  -0.45000  -0.35000  -0.25000  -0.15000  -0.05000   0.05000   0.15000   0.25000   0.35000   0.45000 
 KGrids3:   0.00000 
<Band_DFT>  Eigen, time=0.267792
<Band_DFT>  DM, time=0.528070
    1   Mo  MulP 6.86 6.86 sum 13.72 diff  0.00 (  0.20 257.78)  Ml 0.00 (  0.00   0.00)  Ml+s 0.00 (  0.01 257.79)
    2   Se  MulP 3.07 3.07 sum  6.14 diff  0.00 ( 90.01  30.26)  Ml 0.00 (105.26  30.00)  Ml+s 0.00 ( 90.01  30.26)
    3   Se  MulP 3.07 3.07 sum  6.14 diff  0.00 ( 90.01 210.26)  Ml 0.00 (105.26 210.00)  Ml+s 0.00 ( 90.01 210.26)
 Sum of MulP: up   =    13.00000 down          =    13.00000
              total=    26.00000 ideal(neutral)=    26.00000
<DFT>  Total Spin Moment    (muB)  0.000000001   Angles    0.000354216     0.000000000
<DFT>  Total Orbital Moment (muB)  0.000000014   Angles    0.000008995     0.000000000
<DFT>  Total Moment         (muB)  0.000000014   Angles    0.000024582     0.000000000
<DFT>  Mixing_weight= 0.001024577079
<DFT>  Uele   =  -20.396725282549  dUele     =   0.003653905163
<DFT>  NormRD =    0.154879100291  Criterion =   0.000000000100

******************* MD= 2  SCF= 3 *******************
<Poisson>  Poisson's equation using FFT...
<Set_Hamiltonian>  Hamiltonian matrix for VNA+dVH+Vxc...
<Band>  Solving the eigenvalue problem...
 KGrids1:  -0.45000  -0.35000  -0.25000  -0.15000  -0.05000   0.05000   0.15000   0.25000   0.35000   0.45000 
 KGrids2:  -0.45000  -0.35000  -0.25000  -0.15000  -0.05000   0.05000   0.15000   0.25000   0.35000   0.45000 
 KGrids3:   0.00000 
<Band_DFT>  Eigen, time=0.269538
<Band_DFT>  DM, time=0.530918
    1   Mo  MulP 6.86 6.86 sum 13.72 diff  0.00 (  0.20 257.76)  Ml 0.00 (  0.00   0.00)  Ml+s 0.00 (  0.01 257.78)
    2   Se  MulP 3.07 3.07 sum  6.14 diff  0.00 ( 90.01  30.26)  Ml 0.00 (105.21  30.00)  Ml+s 0.00 ( 90.01  30.26)
    3   Se  MulP 3.07 3.07 sum  6.14 diff  0.00 ( 90.01 210.26)  Ml 0.00 (105.21 210.00)  Ml+s 0.00 ( 90.01 210.26)
 Sum of MulP: up   =    13.00000 down          =    13.00000
              total=    26.00000 ideal(neutral)=    26.00000
<DFT>  Total Spin Moment    (muB)  0.000000001   Angles    0.000319304     0.000000000
<DFT>  Total Orbital Moment (muB)  0.000000014   Angles    0.000012372     0.000000000
<DFT>  Total Moment         (muB)  0.000000014   Angles    0.000026190     0.000000000
<DFT>  Mixing_weight= 0.001024577079
<DFT>  Uele   =  -20.396187337592  dUele     =   0.000537944957
<DFT>  NormRD =    0.154426798001  Criterion =   0.000000000100

******************* MD= 2  SCF= 4 *******************
<Poisson>  Poisson's equation using FFT...
<Set_Hamiltonian>  Hamiltonian matrix for VNA+dVH+Vxc...
<Band>  Solving the eigenvalue problem...
 KGrids1:  -0.45000  -0.35000  -0.25000  -0.15000  -0.05000   0.05000   0.15000   0.25000   0.35000   0.45000 
 KGrids2:  -0.45000  -0.35000  -0.25000  -0.15000  -0.05000   0.05000   0.15000   0.25000   0.35000   0.45000 
 KGrids3:   0.00000 
<Band_DFT>  Eigen, time=0.267518
<Band_DFT>  DM, time=0.526601
    1   Mo  MulP 6.86 6.86 sum 13.71 diff  0.00 (  0.20 257.76)  Ml 0.00 (  0.00   0.00)  Ml+s 0.00 (  0.01 257.78)
    2   Se  MulP 3.07 3.07 sum  6.14 diff  0.00 ( 90.01  30.26)  Ml 0.00 (105.17  30.00)  Ml+s 0.00 ( 90.01  30.26)
    3   Se  MulP 3.07 3.07 sum  6.14 diff  0.00 ( 90.01 210.26)  Ml 0.00 (105.17 210.00)  Ml+s 0.00 ( 90.01 210.26)
 Sum of MulP: up   =    13.00000 down          =    13.00000
              total=    26.00000 ideal(neutral)=    26.00000
<DFT>  Total Spin Moment    (muB)  0.000000001   Angles    0.000374453     0.000000000
<DFT>  Total Orbital Moment (muB)  0.000000014   Angles    0.000010867     0.000000000
<DFT>  Total Moment         (muB)  0.000000014   Angles    0.000027187     0.000000000
<DFT>  Mixing_weight= 0.001024577079
<DFT>  Uele   =  -20.395655861973  dUele     =   0.000531475619
<DFT>  NormRD =    0.153978515019  Criterion =   0.000000000100

******************* MD= 2  SCF= 5 *******************
<Poisson>  Poisson's equation using FFT...
<Set_Hamiltonian>  Hamiltonian matrix for VNA+dVH+Vxc...
<Band>  Solving the eigenvalue problem...
 KGrids1:  -0.45000  -0.35000  -0.25000  -0.15000  -0.05000   0.05000   0.15000   0.25000   0.35000   0.45000 
 KGrids2:  -0.45000  -0.35000  -0.25000  -0.15000  -0.05000   0.05000   0.15000   0.25000   0.35000   0.45000 
 KGrids3:   0.00000 
<Band_DFT>  Eigen, time=0.267479
<Band_DFT>  DM, time=0.527363
    1   Mo  MulP 6.91 6.91 sum 13.82 diff  0.00 (  0.06 252.99)  Ml 0.00 (  0.00   0.00)  Ml+s 0.00 (  0.01 253.06)
    2   Se  MulP 3.04 3.04 sum  6.09 diff  0.00 ( 90.00  30.36)  Ml 0.00 (135.97  29.99)  Ml+s 0.00 ( 90.03  30.36)
    3   Se  MulP 3.04 3.04 sum  6.09 diff  0.00 ( 90.00 210.36)  Ml 0.00 (135.97 209.99)  Ml+s 0.00 ( 90.03 210.36)
 Sum of MulP: up   =    13.00000 down          =    13.00000
              total=    26.00000 ideal(neutral)=    26.00000
<DFT>  Total Spin Moment    (muB)  0.000000002   Angles    0.000204728     0.000000000
<DFT>  Total Orbital Moment (muB)  0.000000013   Angles    0.000012224     0.000000000
<DFT>  Total Moment         (muB)  0.000000015   Angles    0.000040740     0.000000000
<DFT>  Mixing_weight= 0.001024577079
<DFT>  Uele   =  -20.654062440283  dUele     =   0.258406578310
<DFT>  NormRD =    0.148742831573  Criterion =   0.000000000100

******************* MD= 2  SCF= 6 *******************
<Poisson>  Poisson's equation using FFT...
<Set_Hamiltonian>  Hamiltonian matrix for VNA+dVH+Vxc...
<Band>  Solving the eigenvalue problem...
 KGrids1:  -0.45000  -0.35000  -0.25000  -0.15000  -0.05000   0.05000   0.15000   0.25000   0.35000   0.45000 
 KGrids2:  -0.45000  -0.35000  -0.25000  -0.15000  -0.05000   0.05000   0.15000   0.25000   0.35000   0.45000 
 KGrids3:   0.00000 
<Band_DFT>  Eigen, time=0.267888
<Band_DFT>  DM, time=0.527290
    1   Mo  MulP 6.77 6.77 sum 13.55 diff  0.00 (  0.15 258.46)  Ml 0.00 (  0.00   0.00)  Ml+s 0.00 (  0.01 258.58)
    2   Se  MulP 3.11 3.11 sum  6.23 diff  0.00 ( 90.01  30.17)  Ml 0.00 ( 93.91  30.00)  Ml+s 0.00 ( 90.01  30.17)
    3   Se  MulP 3.11 3.11 sum  6.23 diff  0.00 ( 90.01 210.17)  Ml 0.00 ( 93.90 210.00)  Ml+s 0.00 ( 90.01 210.17)
 Sum of MulP: up   =    13.00000 down          =    13.00000
              total=    26.00000 ideal(neutral)=    26.00000
<DFT>  Total Spin Moment    (muB)  0.000000000   Angles    0.001263005     0.000000000
<DFT>  Total Orbital Moment (muB)  0.000000014   Angles    0.000017351     0.000000000
<DFT>  Total Moment         (muB)  0.000000015   Angles    0.000055027     0.000000000
<DFT>  Mixing_weight= 0.001024577079
<DFT>  Uele   =  -20.337214968820  dUele     =   0.316847471463
<DFT>  NormRD =    0.038841046091  Criterion =   0.000000000100

******************* MD= 2  SCF= 7 *******************
<Poisson>  Poisson's equation using FFT...
<Set_Hamiltonian>  Hamiltonian matrix for VNA+dVH+Vxc...
<Band>  Solving the eigenvalue problem...
 KGrids1:  -0.45000  -0.35000  -0.25000  -0.15000  -0.05000   0.05000   0.15000   0.25000   0.35000   0.45000 
 KGrids2:  -0.45000  -0.35000  -0.25000  -0.15000  -0.05000   0.05000   0.15000   0.25000   0.35000   0.45000 
 KGrids3:   0.00000 
<Band_DFT>  Eigen, time=0.268075
<Band_DFT>  DM, time=0.528341
    1   Mo  MulP 6.80 6.80 sum 13.59 diff  0.00 (  0.17 242.62)  Ml 0.00 (  0.00   0.00)  Ml+s 0.00 (  0.01 242.63)
    2   Se  MulP 3.10 3.10 sum  6.20 diff  0.00 ( 90.01  30.19)  Ml 0.00 (102.61  30.00)  Ml+s 0.00 ( 90.02  30.19)
    3   Se  MulP 3.10 3.10 sum  6.20 diff  0.00 ( 90.01 210.19)  Ml 0.00 (102.61 210.00)  Ml+s 0.00 ( 90.02 210.19)
 Sum of MulP: up   =    13.00000 down          =    13.00000
              total=    26.00000 ideal(neutral)=    26.00000
<DFT>  Total Spin Moment    (muB)  0.000000001   Angles    0.000672086     0.000000000
<DFT>  Total Orbital Moment (muB)  0.000000014   Angles    0.000012104     0.000000000
<DFT>  Total Moment         (muB)  0.000000014   Angles    0.000040901     0.000000000
<DFT>  Mixing_weight= 0.001024577079
<DFT>  Uele   =  -20.407799790722  dUele     =   0.070584821902
<DFT>  NormRD =    0.004578879489  Criterion =   0.000000000100

******************* MD= 2  SCF= 8 *******************
<Poisson>  Poisson's equation using FFT...
<Set_Hamiltonian>  Hamiltonian matrix for VNA+dVH+Vxc...
<Band>  Solving the eigenvalue problem...
 KGrids1:  -0.45000  -0.35000  -0.25000  -0.15000  -0.05000   0.05000   0.15000   0.25000   0.35000   0.45000 
 KGrids2:  -0.45000  -0.35000  -0.25000  -0.15000  -0.05000   0.05000   0.15000   0.25000   0.35000   0.45000 
 KGrids3:   0.00000 
<Band_DFT>  Eigen, time=0.267872
<Band_DFT>  DM, time=0.527322
    1   Mo  MulP 6.80 6.80 sum 13.60 diff  0.00 (  0.35  13.75)  Ml 0.00 (  0.00   0.00)  Ml+s 0.00 (  0.03  13.74)
    2   Se  MulP 3.10 3.10 sum  6.20 diff  0.00 ( 90.01  30.20)  Ml 0.00 (103.04  30.00)  Ml+s 0.00 ( 90.02  30.20)
    3   Se  MulP 3.10 3.10 sum  6.20 diff  0.00 ( 90.01 210.20)  Ml 0.00 (103.04 210.00)  Ml+s 0.00 ( 90.02 210.20)
 Sum of MulP: up   =    13.00000 down          =    13.00000
              total=    26.00000 ideal(neutral)=    26.00000
<DFT>  Total Spin Moment    (muB)  0.000000001   Angles    0.000081257     0.000000000
<DFT>  Total Orbital Moment (muB)  0.000000014   Angles    0.000009957     0.000000000
<DFT>  Total Moment         (muB)  0.000000014   Angles    0.000013144     0.000000000
<DFT>  Mixing_weight= 0.001024577079
<DFT>  Uele   =  -20.414322214574  dUele     =   0.006522423852
<DFT>  NormRD =    0.000695448933  Criterion =   0.000000000100

******************* MD= 2  SCF= 9 *******************
<Poisson>  Poisson's equation using FFT...
<Set_Hamiltonian>  Hamiltonian matrix for VNA+dVH+Vxc...
<Band>  Solving the eigenvalue problem...
 KGrids1:  -0.45000  -0.35000  -0.25000  -0.15000  -0.05000   0.05000   0.15000   0.25000   0.35000   0.45000 
 KGrids2:  -0.45000  -0.35000  -0.25000  -0.15000  -0.05000   0.05000   0.15000   0.25000   0.35000   0.45000 
 KGrids3:   0.00000 
<Band_DFT>  Eigen, time=0.269920
<Band_DFT>  DM, time=0.529597
    1   Mo  MulP 6.80 6.80 sum 13.60 diff  0.00 (  4.16 210.87)  Ml 0.00 (  0.00  30.48)  Ml+s 0.00 (  0.32 210.87)
    2   Se  MulP 3.10 3.10 sum  6.20 diff  0.00 ( 90.01  30.20)  Ml 0.00 (103.12  30.00)  Ml+s 0.00 ( 90.02  30.20)
    3   Se  MulP 3.10 3.10 sum  6.20 diff  0.00 ( 90.01 210.20)  Ml 0.00 (103.13 210.00)  Ml+s 0.00 ( 90.02 210.20)
 Sum of MulP: up   =    13.00000 down          =    13.00000
              total=    26.00000 ideal(neutral)=    26.00000
<DFT>  Total Spin Moment    (muB)  0.000000001   Angles    0.003043850    29.547845797
<DFT>  Total Orbital Moment (muB)  0.000000014   Angles    0.000202517    29.758079189
<DFT>  Total Moment         (muB)  0.000000014   Angles    0.000330427    29.670896305
<DFT>  Mixing_weight= 0.001024577079
<DFT>  Uele   =  -20.414975274768  dUele     =   0.000653060194
<DFT>  NormRD =    0.000205409191  Criterion =   0.000000000100

******************* MD= 2  SCF=10 *******************
<Poisson>  Poisson's equation using FFT...
<Set_Hamiltonian>  Hamiltonian matrix for VNA+dVH+Vxc...
<Band>  Solving the eigenvalue problem...
 KGrids1:  -0.45000  -0.35000  -0.25000  -0.15000  -0.05000   0.05000   0.15000   0.25000   0.35000   0.45000 
 KGrids2:  -0.45000  -0.35000  -0.25000  -0.15000  -0.05000   0.05000   0.15000   0.25000   0.35000   0.45000 
 KGrids3:   0.00000 
<Band_DFT>  Eigen, time=0.266775
<Band_DFT>  DM, time=0.570562
    1   Mo  MulP 6.80 6.80 sum 13.60 diff  0.00 ( 32.59  29.42)  Ml 0.00 (  0.00 209.99)  Ml+s 0.00 (  2.77  29.42)
    2   Se  MulP 3.10 3.10 sum  6.20 diff  0.00 ( 90.01  30.20)  Ml 0.00 (103.13  30.00)  Ml+s 0.00 ( 90.02  30.20)
    3   Se  MulP 3.10 3.10 sum  6.20 diff  0.00 ( 90.01 210.20)  Ml 0.00 (103.07 210.00)  Ml+s 0.00 ( 90.02 210.20)
 Sum of MulP: up   =    13.00000 down          =    13.00000
              total=    26.00000 ideal(neutral)=    26.00000
<DFT>  Total Spin Moment    (muB)  0.000000001   Angles    0.024120203   209.827671282
<DFT>  Total Orbital Moment (muB)  0.000000014   Angles    0.001772846   210.011313488
<DFT>  Total Moment         (muB)  0.000000014   Angles    0.002780081   209.939500712
<DFT>  Mixing_weight= 0.001024577079
<DFT>  Uele   =  -20.415487280416  dUele     =   0.000512005648
<DFT>  NormRD =    0.000347044815  Criterion =   0.000000000100

******************* MD= 2  SCF=11 *******************
<Poisson>  Poisson's equation using FFT...
<Set_Hamiltonian>  Hamiltonian matrix for VNA+dVH+Vxc...
<Band>  Solving the eigenvalue problem...
 KGrids1:  -0.45000  -0.35000  -0.25000  -0.15000  -0.05000   0.05000   0.15000   0.25000   0.35000   0.45000 
 KGrids2:  -0.45000  -0.35000  -0.25000  -0.15000  -0.05000   0.05000   0.15000   0.25000   0.35000   0.45000 
 KGrids3:   0.00000 
<Band_DFT>  Eigen, time=0.267594
<Band_DFT>  DM, time=0.527484
    1   Mo  MulP 6.80 6.80 sum 13.60 diff  0.00 (  7.40 210.27)  Ml 0.00 (  0.00  29.83)  Ml+s 0.00 (  0.56 210.27)
    2   Se  MulP 3.10 3.10 sum  6.20 diff  0.00 ( 90.01  30.20)  Ml 0.00 (103.11  30.00)  Ml+s 0.00 ( 90.02  30.20)
    3   Se  MulP 3.10 3.10 sum  6.20 diff  0.00 ( 90.01 210.20)  Ml 0.00 (103.12 210.00)  Ml+s 0.00 ( 90.02 210.20)
 Sum of MulP: up   =    13.00000 down          =    13.00000
              total=    26.00000 ideal(neutral)=    26.00000
<DFT>  Total Spin Moment    (muB)  0.000000001   Angles    0.005168098    30.641408140
<DFT>  Total Orbital Moment (muB)  0.000000014   Angles    0.000314670    29.612179909
<DFT>  Total Moment         (muB)  0.000000014   Angles    0.000533512    30.061757189
<DFT>  Mixing_weight= 0.001024577079
<DFT>  Uele   =  -20.415597457180  dUele     =   0.000110176764
<DFT>  NormRD =    0.000089731436  Criterion =   0.000000000100

******************* MD= 2  SCF=12 *******************
<Poisson>  Poisson's equation using FFT...
<Set_Hamiltonian>  Hamiltonian matrix for VNA+dVH+Vxc...
<Band>  Solving the eigenvalue problem...
 KGrids1:  -0.45000  -0.35000  -0.25000  -0.15000  -0.05000   0.05000   0.15000   0.25000   0.35000   0.45000 
 KGrids2:  -0.45000  -0.35000  -0.25000  -0.15000  -0.05000   0.05000   0.15000   0.25000   0.35000   0.45000 
 KGrids3:   0.00000 
<Band_DFT>  Eigen, time=0.267229
<Band_DFT>  DM, time=0.531637
    1   Mo  MulP 6.80 6.80 sum 13.60 diff  0.00 (  0.51 220.19)  Ml 0.00 (  0.00   0.00)  Ml+s 0.00 (  0.04 220.21)
    2   Se  MulP 3.10 3.10 sum  6.20 diff  0.00 ( 90.01  30.20)  Ml 0.00 (103.09  30.00)  Ml+s 0.00 ( 90.01  30.20)
    3   Se  MulP 3.10 3.10 sum  6.20 diff  0.00 ( 90.01 210.20)  Ml 0.00 (103.09 210.00)  Ml+s 0.00 ( 90.01 210.20)
 Sum of MulP: up   =    13.00000 down          =    13.00000
              total=    26.00000 ideal(neutral)=    26.00000
<DFT>  Total Spin Moment    (muB)  0.000000001   Angles    0.000485682     0.000000000
<DFT>  Total Orbital Moment (muB)  0.000000014   Angles    0.000028200     0.000000000
<DFT>  Total Moment         (muB)  0.000000014   Angles    0.000048822     0.000000000
<DFT>  Mixing_weight= 0.001024577079
<DFT>  Uele   =  -20.415482667734  dUele     =   0.000114789446
<DFT>  NormRD =    0.000008252594  Criterion =   0.000000000100

******************* MD= 2  SCF=13 *******************
<Poisson>  Poisson's equation using FFT...
<Set_Hamiltonian>  Hamiltonian matrix for VNA+dVH+Vxc...
<Band>  Solving the eigenvalue problem...
 KGrids1:  -0.45000  -0.35000  -0.25000  -0.15000  -0.05000   0.05000   0.15000   0.25000   0.35000   0.45000 
 KGrids2:  -0.45000  -0.35000  -0.25000  -0.15000  -0.05000   0.05000   0.15000   0.25000   0.35000   0.45000 
 KGrids3:   0.00000 
<Band_DFT>  Eigen, time=0.271075
<Band_DFT>  DM, time=0.527369
    1   Mo  MulP 6.80 6.80 sum 13.60 diff  0.00 (  0.10 -74.52)  Ml 0.00 (  0.00   0.00)  Ml+s 0.00 (  0.01 -74.49)
    2   Se  MulP 3.10 3.10 sum  6.20 diff  0.00 ( 90.01  30.20)  Ml 0.00 (103.09  30.00)  Ml+s 0.00 ( 90.01  30.20)
    3   Se  MulP 3.10 3.10 sum  6.20 diff  0.00 ( 90.01 210.20)  Ml 0.00 (103.09 210.00)  Ml+s 0.00 ( 90.01 210.20)
 Sum of MulP: up   =    13.00000 down          =    13.00000
              total=    26.00000 ideal(neutral)=    26.00000
<DFT>  Total Spin Moment    (muB)  0.000000001   Angles    0.000273516     0.000000000
<DFT>  Total Orbital Moment (muB)  0.000000014   Angles    0.000004095     0.000000000
<DFT>  Total Moment         (muB)  0.000000014   Angles    0.000016244     0.000000000
<DFT>  Mixing_weight= 0.001024577079
<DFT>  Uele   =  -20.415473246886  dUele     =   0.000009420849
<DFT>  NormRD =    0.000004034943  Criterion =   0.000000000100

******************* MD= 2  SCF=14 *******************
<Poisson>  Poisson's equation using FFT...
<Set_Hamiltonian>  Hamiltonian matrix for VNA+dVH+Vxc...
<Band>  Solving the eigenvalue problem...
 KGrids1:  -0.45000  -0.35000  -0.25000  -0.15000  -0.05000   0.05000   0.15000   0.25000   0.35000   0.45000 
 KGrids2:  -0.45000  -0.35000  -0.25000  -0.15000  -0.05000   0.05000   0.15000   0.25000   0.35000   0.45000 
 KGrids3:   0.00000 
<Band_DFT>  Eigen, time=0.267245
<Band_DFT>  DM, time=0.527146
    1   Mo  MulP 6.80 6.80 sum 13.60 diff  0.00 (  0.13 255.37)  Ml 0.00 (  0.00   0.00)  Ml+s 0.00 (  0.01 255.39)
    2   Se  MulP 3.10 3.10 sum  6.20 diff  0.00 ( 90.01  30.20)  Ml 0.00 (103.08  30.00)  Ml+s 0.00 ( 90.01  30.20)
    3   Se  MulP 3.10 3.10 sum  6.20 diff  0.00 ( 90.01 210.20)  Ml 0.00 (103.08 210.00)  Ml+s 0.00 ( 90.01 210.20)
 Sum of MulP: up   =    13.00000 down          =    13.00000
              total=    26.00000 ideal(neutral)=    26.00000
<DFT>  Total Spin Moment    (muB)  0.000000001   Angles    0.000293904     0.000000000
<DFT>  Total Orbital Moment (muB)  0.000000014   Angles    0.000009156     0.000000000
<DFT>  Total Moment         (muB)  0.000000014   Angles    0.000021984     0.000000000
<DFT>  Mixing_weight= 0.001024577079
<DFT>  Uele   =  -20.415479623691  dUele     =   0.000006376805
<DFT>  NormRD =    0.000000190552  Criterion =   0.000000000100

******************* MD= 2  SCF=15 *******************
<Poisson>  Poisson's equation using FFT...
<Set_Hamiltonian>  Hamiltonian matrix for VNA+dVH+Vxc...
<Band>  Solving the eigenvalue problem...
 KGrids1:  -0.45000  -0.35000  -0.25000  -0.15000  -0.05000   0.05000   0.15000   0.25000   0.35000   0.45000 
 KGrids2:  -0.45000  -0.35000  -0.25000  -0.15000  -0.05000   0.05000   0.15000   0.25000   0.35000   0.45000 
 KGrids3:   0.00000 
<Band_DFT>  Eigen, time=0.267366
<Band_DFT>  DM, time=0.526436
    1   Mo  MulP 6.80 6.80 sum 13.60 diff  0.00 (  0.13 255.17)  Ml 0.00 (  0.00   0.00)  Ml+s 0.00 (  0.01 255.19)
    2   Se  MulP 3.10 3.10 sum  6.20 diff  0.00 ( 90.01  30.20)  Ml 0.00 (103.08  30.00)  Ml+s 0.00 ( 90.01  30.20)
    3   Se  MulP 3.10 3.10 sum  6.20 diff  0.00 ( 90.01 210.20)  Ml 0.00 (103.08 210.00)  Ml+s 0.00 ( 90.01 210.20)
 Sum of MulP: up   =    13.00000 down          =    13.00000
              total=    26.00000 ideal(neutral)=    26.00000
<DFT>  Total Spin Moment    (muB)  0.000000001   Angles    0.000261747     0.000000000
<DFT>  Total Orbital Moment (muB)  0.000000014   Angles    0.000010698     0.000000000
<DFT>  Total Moment         (muB)  0.000000014   Angles    0.000022017     0.000000000
<DFT>  Mixing_weight= 0.001024577079
<DFT>  Uele   =  -20.415479850099  dUele     =   0.000000226408
<DFT>  NormRD =    0.000000079731  Criterion =   0.000000000100

******************* MD= 2  SCF=16 *******************
<Poisson>  Poisson's equation using FFT...
<Set_Hamiltonian>  Hamiltonian matrix for VNA+dVH+Vxc...
<Band>  Solving the eigenvalue problem...
 KGrids1:  -0.45000  -0.35000  -0.25000  -0.15000  -0.05000   0.05000   0.15000   0.25000   0.35000   0.45000 
 KGrids2:  -0.45000  -0.35000  -0.25000  -0.15000  -0.05000   0.05000   0.15000   0.25000   0.35000   0.45000 
 KGrids3:   0.00000 
<Band_DFT>  Eigen, time=0.266750
<Band_DFT>  DM, time=0.530460
    1   Mo  MulP 6.80 6.80 sum 13.60 diff  0.00 (  0.13 255.22)  Ml 0.00 (  0.00   0.00)  Ml+s 0.00 (  0.01 255.22)
    2   Se  MulP 3.10 3.10 sum  6.20 diff  0.00 ( 90.01  30.20)  Ml 0.00 (103.08  30.00)  Ml+s 0.00 ( 90.01  30.20)
    3   Se  MulP 3.10 3.10 sum  6.20 diff  0.00 ( 90.01 210.20)  Ml 0.00 (103.08 210.00)  Ml+s 0.00 ( 90.01 210.20)
 Sum of MulP: up   =    13.00000 down          =    13.00000
              total=    26.00000 ideal(neutral)=    26.00000
<DFT>  Total Spin Moment    (muB)  0.000000001   Angles    0.000232102     0.000000000
<DFT>  Total Orbital Moment (muB)  0.000000014   Angles    0.000008914     0.000000000
<DFT>  Total Moment         (muB)  0.000000014   Angles    0.000018957     0.000000000
<DFT>  Mixing_weight= 0.001024577079
<DFT>  Uele   =  -20.415479823896  dUele     =   0.000000026203
<DFT>  NormRD =    0.000000008214  Criterion =   0.000000000100

******************* MD= 2  SCF=17 *******************
<Poisson>  Poisson's equation using FFT...
<Set_Hamiltonian>  Hamiltonian matrix for VNA+dVH+Vxc...
<Band>  Solving the eigenvalue problem...
 KGrids1:  -0.45000  -0.35000  -0.25000  -0.15000  -0.05000   0.05000   0.15000   0.25000   0.35000   0.45000 
 KGrids2:  -0.45000  -0.35000  -0.25000  -0.15000  -0.05000   0.05000   0.15000   0.25000   0.35000   0.45000 
 KGrids3:   0.00000 
<Band_DFT>  Eigen, time=0.267390
<Band_DFT>  DM, time=0.528610
    1   Mo  MulP 6.80 6.80 sum 13.60 diff  0.00 (  0.13 255.32)  Ml 0.00 (  0.00   0.00)  Ml+s 0.00 (  0.01 255.33)
    2   Se  MulP 3.10 3.10 sum  6.20 diff  0.00 ( 90.01  30.20)  Ml 0.00 (103.08  30.00)  Ml+s 0.00 ( 90.01  30.20)
    3   Se  MulP 3.10 3.10 sum  6.20 diff  0.00 ( 90.01 210.20)  Ml 0.00 (103.08 210.00)  Ml+s 0.00 ( 90.01 210.20)
 Sum of MulP: up   =    13.00000 down          =    13.00000
              total=    26.00000 ideal(neutral)=    26.00000
<DFT>  Total Spin Moment    (muB)  0.000000001   Angles    0.000407371     0.000000000
<DFT>  Total Orbital Moment (muB)  0.000000014   Angles    0.000009392     0.000000000
<DFT>  Total Moment         (muB)  0.000000014   Angles    0.000027321     0.000000000
<DFT>  Mixing_weight= 0.001024577079
<DFT>  Uele   =  -20.415479830553  dUele     =   0.000000006657
<DFT>  NormRD =    0.000000002840  Criterion =   0.000000000100

******************* MD= 2  SCF=18 *******************
<Poisson>  Poisson's equation using FFT...
<Set_Hamiltonian>  Hamiltonian matrix for VNA+dVH+Vxc...
<Band>  Solving the eigenvalue problem...
 KGrids1:  -0.45000  -0.35000  -0.25000  -0.15000  -0.05000   0.05000   0.15000   0.25000   0.35000   0.45000 
 KGrids2:  -0.45000  -0.35000  -0.25000  -0.15000  -0.05000   0.05000   0.15000   0.25000   0.35000   0.45000 
 KGrids3:   0.00000 
<Band_DFT>  Eigen, time=0.268645
<Band_DFT>  DM, time=0.528944
    1   Mo  MulP 6.80 6.80 sum 13.60 diff  0.00 (  0.13 255.34)  Ml 0.00 (  0.00   0.00)  Ml+s 0.00 (  0.01 255.35)
    2   Se  MulP 3.10 3.10 sum  6.20 diff  0.00 ( 90.01  30.20)  Ml 0.00 (103.08  30.00)  Ml+s 0.00 ( 90.01  30.20)
    3   Se  MulP 3.10 3.10 sum  6.20 diff  0.00 ( 90.01 210.20)  Ml 0.00 (103.08 210.00)  Ml+s 0.00 ( 90.01 210.20)
 Sum of MulP: up   =    13.00000 down          =    13.00000
              total=    26.00000 ideal(neutral)=    26.00000
<DFT>  Total Spin Moment    (muB)  0.000000001   Angles    0.000375048     0.000000000
<DFT>  Total Orbital Moment (muB)  0.000000014   Angles    0.000011644     0.000000000
<DFT>  Total Moment         (muB)  0.000000014   Angles    0.000028032     0.000000000
<DFT>  Mixing_weight= 0.001024577079
<DFT>  Uele   =  -20.415479821984  dUele     =   0.000000008569
<DFT>  NormRD =    0.000000000535  Criterion =   0.000000000100

******************* MD= 2  SCF=19 *******************
<Poisson>  Poisson's equation using FFT...
<Set_Hamiltonian>  Hamiltonian matrix for VNA+dVH+Vxc...
<Band>  Solving the eigenvalue problem...
 KGrids1:  -0.45000  -0.35000  -0.25000  -0.15000  -0.05000   0.05000   0.15000   0.25000   0.35000   0.45000 
 KGrids2:  -0.45000  -0.35000  -0.25000  -0.15000  -0.05000   0.05000   0.15000   0.25000   0.35000   0.45000 
 KGrids3:   0.00000 
<Band_DFT>  Eigen, time=0.267358
<Band_DFT>  DM, time=0.528497
    1   Mo  MulP 6.80 6.80 sum 13.60 diff  0.00 (  0.13 255.34)  Ml 0.00 (  0.00   0.00)  Ml+s 0.00 (  0.01 255.37)
    2   Se  MulP 3.10 3.10 sum  6.20 diff  0.00 ( 90.01  30.20)  Ml 0.00 (103.08  30.00)  Ml+s 0.00 ( 90.01  30.20)
    3   Se  MulP 3.10 3.10 sum  6.20 diff  0.00 ( 90.01 210.20)  Ml 0.00 (103.08 210.00)  Ml+s 0.00 ( 90.01 210.20)
 Sum of MulP: up   =    13.00000 down          =    13.00000
              total=    26.00000 ideal(neutral)=    26.00000
<DFT>  Total Spin Moment    (muB)  0.000000001   Angles    0.000266206     0.000000000
<DFT>  Total Orbital Moment (muB)  0.000000014   Angles    0.000013660     0.000000000
<DFT>  Total Moment         (muB)  0.000000014   Angles    0.000025038     0.000000000
<DFT>  Mixing_weight= 0.001024577079
<DFT>  Uele   =  -20.415479823437  dUele     =   0.000000001453
<DFT>  NormRD =    0.000000001156  Criterion =   0.000000000100

******************* MD= 2  SCF=20 *******************
<Poisson>  Poisson's equation using FFT...
<Set_Hamiltonian>  Hamiltonian matrix for VNA+dVH+Vxc...
<Band>  Solving the eigenvalue problem...
 KGrids1:  -0.45000  -0.35000  -0.25000  -0.15000  -0.05000   0.05000   0.15000   0.25000   0.35000   0.45000 
 KGrids2:  -0.45000  -0.35000  -0.25000  -0.15000  -0.05000   0.05000   0.15000   0.25000   0.35000   0.45000 
 KGrids3:   0.00000 
<Band_DFT>  Eigen, time=0.268976
<Band_DFT>  DM, time=0.527124
    1   Mo  MulP 6.80 6.80 sum 13.60 diff  0.00 (  0.13 255.37)  Ml 0.00 (  0.00   0.00)  Ml+s 0.00 (  0.01 255.38)
    2   Se  MulP 3.10 3.10 sum  6.20 diff  0.00 ( 90.01  30.20)  Ml 0.00 (103.08  30.00)  Ml+s 0.00 ( 90.01  30.20)
    3   Se  MulP 3.10 3.10 sum  6.20 diff  0.00 ( 90.01 210.20)  Ml 0.00 (103.08 210.00)  Ml+s 0.00 ( 90.01 210.20)
 Sum of MulP: up   =    13.00000 down          =    13.00000
              total=    26.00000 ideal(neutral)=    26.00000
<DFT>  Total Spin Moment    (muB)  0.000000001   Angles    0.000311044     0.000000000
<DFT>  Total Orbital Moment (muB)  0.000000014   Angles    0.000010174     0.000000000
<DFT>  Total Moment         (muB)  0.000000014   Angles    0.000023722     0.000000000
<DFT>  Mixing_weight= 0.001024577079
<DFT>  Uele   =  -20.415479822958  dUele     =   0.000000000479
<DFT>  NormRD =    0.000000000019  Criterion =   0.000000000100

******************* MD= 2  SCF=21 *******************
<Poisson>  Poisson's equation using FFT...
<Set_Hamiltonian>  Hamiltonian matrix for VNA+dVH+Vxc...
<Band>  Solving the eigenvalue problem...
 KGrids1:  -0.45000  -0.35000  -0.25000  -0.15000  -0.05000   0.05000   0.15000   0.25000   0.35000   0.45000 
 KGrids2:  -0.45000  -0.35000  -0.25000  -0.15000  -0.05000   0.05000   0.15000   0.25000   0.35000   0.45000 
 KGrids3:   0.00000 
<Band_DFT>  Eigen, time=0.267253
<Band_DFT>  DM, time=0.527449
    1   Mo  MulP 6.80 6.80 sum 13.60 diff  0.00 (  0.13 255.39)  Ml 0.00 (  0.00   0.00)  Ml+s 0.00 (  0.01 255.40)
    2   Se  MulP 3.10 3.10 sum  6.20 diff  0.00 ( 90.01  30.20)  Ml 0.00 (103.08  30.00)  Ml+s 0.00 ( 90.01  30.20)
    3   Se  MulP 3.10 3.10 sum  6.20 diff  0.00 ( 90.01 210.20)  Ml 0.00 (103.08 210.00)  Ml+s 0.00 ( 90.01 210.20)
 Sum of MulP: up   =    13.00000 down          =    13.00000
              total=    26.00000 ideal(neutral)=    26.00000
<DFT>  Total Spin Moment    (muB)  0.000000001   Angles    0.000284204     0.000000000
<DFT>  Total Orbital Moment (muB)  0.000000014   Angles    0.000008749     0.000000000
<DFT>  Total Moment         (muB)  0.000000014   Angles    0.000021173     0.000000000
<DFT>  Mixing_weight= 0.001024577079
<DFT>  Uele   =  -20.415479822926  dUele     =   0.000000000032
<DFT>  NormRD =    0.000000000008  Criterion =   0.000000000100
<MD= 2>  Force calculation
  Force calculation #1
  Force calculation #2
  Force calculation #3
  Force calculation #4
  Force calculation #5
<MD= 2>  Total Energy
  Force calculation #6
  Force calculation #7

*******************************************************
                  Dipole moment (Debye)                 
*******************************************************

 Absolute D       10.92428680

                      Dx                Dy                Dz
 Total              9.46071038        5.46214254       -0.00021361
 Core             342.63993429      197.82325830     6244.16883813
 Electron        -333.17922391     -192.36111576    -6244.16905174
 Back ground       -0.00000000       -0.00000000       -0.00000000

*******************************************************
                Total Energy (Hartree) at MD = 2        
*******************************************************

  Uele  =     -20.415479822926

  Ukin  =      28.057439509358
  UH0   =    -538.258661195916
  UH1   =       0.027489276177
  Una   =     -37.901221780389
  Unl   =       6.686313259483
  Uxc0  =      -7.756888240455
  Uxc1  =      -7.756888236080
  Ucore =     466.911346861417
  Uhub  =       0.000000000000
  Ucs   =       0.000000000000
  Uzs   =       0.000000000000
  Uzo   =       0.000000000000
  Uef   =       0.000000000000
  UvdW  =       0.000000000000
  Utot  =     -89.991070546406

  Note:

  Utot = Ukin+UH0+UH1+Una+Unl+Uxc0+Uxc1+Ucore+Uhub+Ucs+Uzs+Uzo+Uef+UvdW

  Uele:   band energy
  Ukin:   kinetic energy
  UH0:    electric part of screened Coulomb energy
  UH1:    difference electron-electron Coulomb energy
  Una:    neutral atom potential energy
[...]
<DFT>  Total Spin Moment    (muB)  0.000000968   Angles    0.000037682   172.992512353
<DFT>  Total Orbital Moment (muB)  0.000000309   Angles  179.999832575   176.762444583
<DFT>  Total Moment         (muB)  0.000000659   Angles    0.000133773   175.203560673
<DFT>  Mixing_weight= 0.001000000000
<DFT>  Uele   =  -20.552170840318  dUele     =   0.000061702451
<DFT>  NormRD =    0.000034841278  Criterion =   0.000000000100

******************* MD=14  SCF= 6 *******************
<Poisson>  Poisson's equation using FFT...
<Set_Hamiltonian>  Hamiltonian matrix for VNA+dVH+Vxc...
<Band>  Solving the eigenvalue problem...
 KGrids1:  -0.45000  -0.35000  -0.25000  -0.15000  -0.05000   0.05000   0.15000   0.25000   0.35000   0.45000 
 KGrids2:  -0.45000  -0.35000  -0.25000  -0.15000  -0.05000   0.05000   0.15000   0.25000   0.35000   0.45000 
 KGrids3:   0.00000 
<Band_DFT>  Eigen, time=0.369058
<Band_DFT>  DM, time=0.816962
    1   Mo  MulP 6.80 6.80 sum 13.60 diff  0.00 (  0.00 255.73)  Ml 0.00 (180.00 -33.07)  Ml+s 0.00 (  0.00 255.90)
    2   Se  MulP 3.10 3.10 sum  6.20 diff  0.00 ( 96.93  34.69)  Ml 0.00 ( 50.13  30.06)  Ml+s 0.00 ( 95.97  34.60)
    3   Se  MulP 3.10 3.10 sum  6.20 diff  0.00 ( 96.93 214.69)  Ml 0.00 ( 50.13 210.06)  Ml+s 0.00 ( 95.97 214.60)
 Sum of MulP: up   =    13.00000 down          =    13.00000
              total=    26.00000 ideal(neutral)=    26.00000
<DFT>  Total Spin Moment    (muB)  0.000000968   Angles    0.000032712   170.291287670
<DFT>  Total Orbital Moment (muB)  0.000000309   Angles  179.999963908   -20.710339981
<DFT>  Total Moment         (muB)  0.000000659   Angles    0.000031601   176.154458303
<DFT>  Mixing_weight= 0.001000000000
<DFT>  Uele   =  -20.552096390427  dUele     =   0.000074449891
<DFT>  NormRD =    0.000006482887  Criterion =   0.000000000100

******************* MD=14  SCF= 7 *******************
<Poisson>  Poisson's equation using FFT...
<Set_Hamiltonian>  Hamiltonian matrix for VNA+dVH+Vxc...
<Band>  Solving the eigenvalue problem...
 KGrids1:  -0.45000  -0.35000  -0.25000  -0.15000  -0.05000   0.05000   0.15000   0.25000   0.35000   0.45000 
 KGrids2:  -0.45000  -0.35000  -0.25000  -0.15000  -0.05000   0.05000   0.15000   0.25000   0.35000   0.45000 
 KGrids3:   0.00000 
<Band_DFT>  Eigen, time=0.370258
<Band_DFT>  DM, time=0.814472
    1   Mo  MulP 6.80 6.80 sum 13.60 diff  0.00 (  0.00 -84.76)  Ml 0.00 (180.00   3.62)  Ml+s 0.00 (  0.00 -84.09)
    2   Se  MulP 3.10 3.10 sum  6.20 diff  0.00 ( 96.93  34.69)  Ml 0.00 ( 50.13  30.06)  Ml+s 0.00 ( 95.96  34.60)
    3   Se  MulP 3.10 3.10 sum  6.20 diff  0.00 ( 96.93 214.69)  Ml 0.00 ( 50.13 210.06)  Ml+s 0.00 ( 95.97 214.60)
 Sum of MulP: up   =    13.00000 down          =    13.00000
              total=    26.00000 ideal(neutral)=    26.00000
<DFT>  Total Spin Moment    (muB)  0.000000968   Angles    0.000062156    29.910549789
<DFT>  Total Orbital Moment (muB)  0.000000309   Angles  179.999911801     5.616752002
<DFT>  Total Moment         (muB)  0.000000659   Angles    0.000130091    22.397593813
<DFT>  Mixing_weight= 0.001000000000
<DFT>  Uele   =  -20.552109942604  dUele     =   0.000013552177
<DFT>  NormRD =    0.000000595054  Criterion =   0.000000000100

******************* MD=14  SCF= 8 *******************
<Poisson>  Poisson's equation using FFT...
<Set_Hamiltonian>  Hamiltonian matrix for VNA+dVH+Vxc...
<Band>  Solving the eigenvalue problem...
 KGrids1:  -0.45000  -0.35000  -0.25000  -0.15000  -0.05000   0.05000   0.15000   0.25000   0.35000   0.45000 
 KGrids2:  -0.45000  -0.35000  -0.25000  -0.15000  -0.05000   0.05000   0.15000   0.25000   0.35000   0.45000 
 KGrids3:   0.00000 
<Band_DFT>  Eigen, time=0.397218
<Band_DFT>  DM, time=0.863179
    1   Mo  MulP 6.80 6.80 sum 13.60 diff  0.00 (  0.00 246.27)  Ml 0.00 (180.00 195.42)  Ml+s 0.00 (  0.00 245.72)
    2   Se  MulP 3.10 3.10 sum  6.20 diff  0.00 ( 96.93  34.69)  Ml 0.00 ( 50.13  30.06)  Ml+s 0.00 ( 95.97  34.60)
    3   Se  MulP 3.10 3.10 sum  6.20 diff  0.00 ( 96.93 214.69)  Ml 0.00 ( 50.13 210.06)  Ml+s 0.00 ( 95.97 214.60)
 Sum of MulP: up   =    13.00000 down          =    13.00000
              total=    26.00000 ideal(neutral)=    26.00000
<DFT>  Total Spin Moment    (muB)  0.000000968   Angles    0.000178918   204.447193934
<DFT>  Total Orbital Moment (muB)  0.000000309   Angles  179.999853384   196.715208520
<DFT>  Total Moment         (muB)  0.000000659   Angles    0.000331018   202.846518983
<DFT>  Mixing_weight= 0.001000000000
<DFT>  Uele   =  -20.552110512098  dUele     =   0.000000569494
<DFT>  NormRD =    0.000001633712  Criterion =   0.000000000100

******************* MD=14  SCF= 9 *******************
<Poisson>  Poisson's equation using FFT...
<Set_Hamiltonian>  Hamiltonian matrix for VNA+dVH+Vxc...
<Band>  Solving the eigenvalue problem...
 KGrids1:  -0.45000  -0.35000  -0.25000  -0.15000  -0.05000   0.05000   0.15000   0.25000   0.35000   0.45000 
 KGrids2:  -0.45000  -0.35000  -0.25000  -0.15000  -0.05000   0.05000   0.15000   0.25000   0.35000   0.45000 
 KGrids3:   0.00000 
<Band_DFT>  Eigen, time=0.368201
<Band_DFT>  DM, time=0.812968
    1   Mo  MulP 6.80 6.80 sum 13.60 diff  0.00 (  0.00 -85.79)  Ml 0.00 (180.00 174.10)  Ml+s 0.00 (  0.00 -86.17)
    2   Se  MulP 3.10 3.10 sum  6.20 diff  0.00 ( 96.93  34.69)  Ml 0.00 ( 50.13  30.06)  Ml+s 0.00 ( 95.97  34.60)
    3   Se  MulP 3.10 3.10 sum  6.20 diff  0.00 ( 96.93 214.69)  Ml 0.00 ( 50.13 210.06)  Ml+s 0.00 ( 95.97 214.60)
 Sum of MulP: up   =    13.00000 down          =    13.00000
              total=    26.00000 ideal(neutral)=    26.00000
<DFT>  Total Spin Moment    (muB)  0.000000968   Angles    0.000017929   155.190646393
<DFT>  Total Orbital Moment (muB)  0.000000309   Angles  179.999947606   176.496585191
<DFT>  Total Moment         (muB)  0.000000659   Angles    0.000050017   165.468033439
<DFT>  Mixing_weight= 0.001000000000
<DFT>  Uele   =  -20.552110633257  dUele     =   0.000000121159
<DFT>  NormRD =    0.000000020609  Criterion =   0.000000000100

******************* MD=14  SCF=10 *******************
<Poisson>  Poisson's equation using FFT...
<Set_Hamiltonian>  Hamiltonian matrix for VNA+dVH+Vxc...
<Band>  Solving the eigenvalue problem...
 KGrids1:  -0.45000  -0.35000  -0.25000  -0.15000  -0.05000   0.05000   0.15000   0.25000   0.35000   0.45000 
 KGrids2:  -0.45000  -0.35000  -0.25000  -0.15000  -0.05000   0.05000   0.15000   0.25000   0.35000   0.45000 
 KGrids3:   0.00000 
<Band_DFT>  Eigen, time=0.371930
<Band_DFT>  DM, time=0.818390
    1   Mo  MulP 6.80 6.80 sum 13.60 diff  0.00 (  0.00 261.26)  Ml 0.00 (180.00  -5.27)  Ml+s 0.00 (  0.00 261.98)
    2   Se  MulP 3.10 3.10 sum  6.20 diff  0.00 ( 96.93  34.69)  Ml 0.00 ( 50.13  30.06)  Ml+s 0.00 ( 95.96  34.60)
    3   Se  MulP 3.10 3.10 sum  6.20 diff  0.00 ( 96.93 214.69)  Ml 0.00 ( 50.13 210.06)  Ml+s 0.00 ( 95.97 214.60)
 Sum of MulP: up   =    13.00000 down          =    13.00000
              total=    26.00000 ideal(neutral)=    26.00000
<DFT>  Total Spin Moment    (muB)  0.000000968   Angles    0.000030972    17.507618244
<DFT>  Total Orbital Moment (muB)  0.000000309   Angles  179.999896162    -3.003957479
<DFT>  Total Moment         (muB)  0.000000659   Angles    0.000092665     6.901283917
<DFT>  Mixing_weight= 0.001000000000
<DFT>  Uele   =  -20.552110611854  dUele     =   0.000000021402
<DFT>  NormRD =    0.000000002644  Criterion =   0.000000000100

******************* MD=14  SCF=11 *******************
<Poisson>  Poisson's equation using FFT...
<Set_Hamiltonian>  Hamiltonian matrix for VNA+dVH+Vxc...
<Band>  Solving the eigenvalue problem...
 KGrids1:  -0.45000  -0.35000  -0.25000  -0.15000  -0.05000   0.05000   0.15000   0.25000   0.35000   0.45000 
 KGrids2:  -0.45000  -0.35000  -0.25000  -0.15000  -0.05000   0.05000   0.15000   0.25000   0.35000   0.45000 
 KGrids3:   0.00000 
<Band_DFT>  Eigen, time=0.371218
<Band_DFT>  DM, time=0.813443
    1   Mo  MulP 6.80 6.80 sum 13.60 diff  0.00 (  0.00 -75.62)  Ml 0.00 (180.00 175.91)  Ml+s 0.00 (  0.00 -76.39)
    2   Se  MulP 3.10 3.10 sum  6.20 diff  0.00 ( 96.93  34.69)  Ml 0.00 ( 50.13  30.06)  Ml+s 0.00 ( 95.97  34.60)
    3   Se  MulP 3.10 3.10 sum  6.20 diff  0.00 ( 96.93 214.69)  Ml 0.00 ( 50.13 210.06)  Ml+s 0.00 ( 95.97 214.60)
 Sum of MulP: up   =    13.00000 down          =    13.00000
              total=    26.00000 ideal(neutral)=    26.00000
<DFT>  Total Spin Moment    (muB)  0.000000968   Angles    0.000029979   175.930966965
<DFT>  Total Orbital Moment (muB)  0.000000309   Angles  179.999882787   177.365419702
<DFT>  Total Moment         (muB)  0.000000659   Angles    0.000098971   176.727269748
<DFT>  Mixing_weight= 0.001000000000
<DFT>  Uele   =  -20.552110619992  dUele     =   0.000000008138
<DFT>  NormRD =    0.000000000807  Criterion =   0.000000000100

******************* MD=14  SCF=12 *******************
<Poisson>  Poisson's equation using FFT...
<Set_Hamiltonian>  Hamiltonian matrix for VNA+dVH+Vxc...
<Band>  Solving the eigenvalue problem...
 KGrids1:  -0.45000  -0.35000  -0.25000  -0.15000  -0.05000   0.05000   0.15000   0.25000   0.35000   0.45000 
 KGrids2:  -0.45000  -0.35000  -0.25000  -0.15000  -0.05000   0.05000   0.15000   0.25000   0.35000   0.45000 
 KGrids3:   0.00000 
<Band_DFT>  Eigen, time=0.368609
<Band_DFT>  DM, time=0.817078
    1   Mo  MulP 6.80 6.80 sum 13.60 diff  0.00 (  0.00 256.08)  Ml 0.00 (180.00  -7.30)  Ml+s 0.00 (  0.00 257.08)
    2   Se  MulP 3.10 3.10 sum  6.20 diff  0.00 ( 96.93  34.69)  Ml 0.00 ( 50.13  30.06)  Ml+s 0.00 ( 95.96  34.60)
    3   Se  MulP 3.10 3.10 sum  6.20 diff  0.00 ( 96.93 214.69)  Ml 0.00 ( 50.13 210.06)  Ml+s 0.00 ( 95.97 214.60)
 Sum of MulP: up   =    13.00000 down          =    13.00000
              total=    26.00000 ideal(neutral)=    26.00000
<DFT>  Total Spin Moment    (muB)  0.000000968   Angles    0.000032734    16.097940584
<DFT>  Total Orbital Moment (muB)  0.000000309   Angles  179.999850463    -4.339510996
<DFT>  Total Moment         (muB)  0.000000659   Angles    0.000116367     3.955547343
<DFT>  Mixing_weight= 0.001000000000
<DFT>  Uele   =  -20.552110618985  dUele     =   0.000000001007
<DFT>  NormRD =    0.000000000239  Criterion =   0.000000000100

******************* MD=14  SCF=13 *******************
<Poisson>  Poisson's equation using FFT...
<Set_Hamiltonian>  Hamiltonian matrix for VNA+dVH+Vxc...
<Band>  Solving the eigenvalue problem...
 KGrids1:  -0.45000  -0.35000  -0.25000  -0.15000  -0.05000   0.05000   0.15000   0.25000   0.35000   0.45000 
 KGrids2:  -0.45000  -0.35000  -0.25000  -0.15000  -0.05000   0.05000   0.15000   0.25000   0.35000   0.45000 
 KGrids3:   0.00000 
<Band_DFT>  Eigen, time=0.369133
<Band_DFT>  DM, time=0.814454
    1   Mo  MulP 6.80 6.80 sum 13.60 diff  0.00 (  0.00 -76.79)  Ml 0.00 (180.00 174.45)  Ml+s 0.00 (  0.00 -77.83)
    2   Se  MulP 3.10 3.10 sum  6.20 diff  0.00 ( 96.93  34.69)  Ml 0.00 ( 50.13  30.06)  Ml+s 0.00 ( 95.96  34.60)
    3   Se  MulP 3.10 3.10 sum  6.20 diff  0.00 ( 96.93 214.69)  Ml 0.00 ( 50.13 210.06)  Ml+s 0.00 ( 95.97 214.60)
 Sum of MulP: up   =    13.00000 down          =    13.00000
              total=    26.00000 ideal(neutral)=    26.00000
<DFT>  Total Spin Moment    (muB)  0.000000968   Angles    0.000046262   178.945249365
<DFT>  Total Orbital Moment (muB)  0.000000309   Angles  179.999843487   176.709693619
<DFT>  Total Moment         (muB)  0.000000659   Angles    0.000141289   177.784594459
<DFT>  Mixing_weight= 0.001000000000
<DFT>  Uele   =  -20.552110618222  dUele     =   0.000000000763
<DFT>  NormRD =    0.000000000309  Criterion =   0.000000000100

******************* MD=14  SCF=14 *******************
<Poisson>  Poisson's equation using FFT...
<Set_Hamiltonian>  Hamiltonian matrix for VNA+dVH+Vxc...
<Band>  Solving the eigenvalue problem...
 KGrids1:  -0.45000  -0.35000  -0.25000  -0.15000  -0.05000   0.05000   0.15000   0.25000   0.35000   0.45000 
 KGrids2:  -0.45000  -0.35000  -0.25000  -0.15000  -0.05000   0.05000   0.15000   0.25000   0.35000   0.45000 
 KGrids3:   0.00000 
<Band_DFT>  Eigen, time=0.368329
<Band_DFT>  DM, time=0.816756
    1   Mo  MulP 6.80 6.80 sum 13.60 diff  0.00 (  0.00 -89.08)  Ml 0.00 (180.00 173.42)  Ml+s 0.00 (  0.00 -89.28)
    2   Se  MulP 3.10 3.10 sum  6.20 diff  0.00 ( 96.93  34.69)  Ml 0.00 ( 50.13  30.06)  Ml+s 0.00 ( 95.97  34.60)
    3   Se  MulP 3.10 3.10 sum  6.20 diff  0.00 ( 96.93 214.69)  Ml 0.00 ( 50.13 210.06)  Ml+s 0.00 ( 95.97 214.60)
 Sum of MulP: up   =    13.00000 down          =    13.00000
              total=    26.00000 ideal(neutral)=    26.00000
<DFT>  Total Spin Moment    (muB)  0.000000968   Angles    0.000011033   158.499977265
<DFT>  Total Orbital Moment (muB)  0.000000309   Angles  179.999971942   176.430482451
<DFT>  Total Moment         (muB)  0.000000659   Angles    0.000028991   166.525404109
<DFT>  Mixing_weight= 0.001000000000
<DFT>  Uele   =  -20.552110618465  dUele     =   0.000000000243
<DFT>  NormRD =    0.000000000050  Criterion =   0.000000000100

******************* MD=14  SCF=15 *******************
<Poisson>  Poisson's equation using FFT...
<Set_Hamiltonian>  Hamiltonian matrix for VNA+dVH+Vxc...
<Band>  Solving the eigenvalue problem...
 KGrids1:  -0.45000  -0.35000  -0.25000  -0.15000  -0.05000   0.05000   0.15000   0.25000   0.35000   0.45000 
 KGrids2:  -0.45000  -0.35000  -0.25000  -0.15000  -0.05000   0.05000   0.15000   0.25000   0.35000   0.45000 
 KGrids3:   0.00000 
<Band_DFT>  Eigen, time=0.375859
<Band_DFT>  DM, time=0.822017
    1   Mo  MulP 6.80 6.80 sum 13.60 diff  0.00 (  0.00 265.66)  Ml 0.00 (180.00  -5.03)  Ml+s 0.00 (  0.00 266.09)
    2   Se  MulP 3.10 3.10 sum  6.20 diff  0.00 ( 96.93  34.69)  Ml 0.00 ( 50.13  30.06)  Ml+s 0.00 ( 95.96  34.60)
    3   Se  MulP 3.10 3.10 sum  6.20 diff  0.00 ( 96.93 214.69)  Ml 0.00 ( 50.13 210.06)  Ml+s 0.00 ( 95.96 214.60)
 Sum of MulP: up   =    13.00000 down          =    13.00000
              total=    26.00000 ideal(neutral)=    26.00000
<DFT>  Total Spin Moment    (muB)  0.000000968   Angles    0.000019469    17.139253021
<DFT>  Total Orbital Moment (muB)  0.000000309   Angles  179.999938963    -2.515743514
<DFT>  Total Moment         (muB)  0.000000659   Angles    0.000056368     7.308884832
<DFT>  Mixing_weight= 0.001000000000
<DFT>  Uele   =  -20.552110618536  dUele     =   0.000000000071
<DFT>  NormRD =    0.000000000027  Criterion =   0.000000000100
<MD=14>  Force calculation
  Force calculation #1
  Force calculation #2
  Force calculation #3
  Force calculation #4
  Force calculation #5
<MD=14>  Total Energy
  Force calculation #6
  Force calculation #7

*******************************************************
                  Dipole moment (Debye)                 
*******************************************************

 Absolute D       10.93254535

                      Dx                Dy                Dz
 Total              9.46786826        5.46626184        0.00002450
 Core             342.63993429      197.82325830     6244.16883801
 Electron        -333.17206603     -192.35699646    -6244.16881351
 Back ground       -0.00000000       -0.00000000       -0.00000000

*******************************************************
                Total Energy (Hartree) at MD =14        
*******************************************************

  Uele  =     -20.552110618536

  Ukin  =      28.206763455310
  UH0   =    -542.926060048545
  UH1   =       0.025838711612
  Una   =     -38.131239401719
  Unl   =       6.711233866598
  Uxc0  =      -7.788000200909
  Uxc1  =      -7.787999564705
  Ucore =     471.692661680909
  Uhub  =       0.000000000000
  Ucs   =       0.000000000000
  Uzs   =       0.000000000000
  Uzo   =       0.000000000000
  Uef   =       0.000000000000
  UvdW  =       0.000000000000
  Utot  =     -89.996801501449

  Note:

  Utot = Ukin+UH0+UH1+Una+Unl+Uxc0+Uxc1+Ucore+Uhub+Ucs+Uzs+Uzo+Uef+UvdW

  Uele:   band energy
  Ukin:   kinetic energy
  UH0:    electric part of screened Coulomb energy
  UH1:    difference electron-electron Coulomb energy
  Una:    neutral atom potential energy
  Unl:    non-local potential energy
  Uxc0:   exchange-correlation energy for alpha spin
  Uxc1:   exchange-correlation energy for beta spin
  Ucore:  core-core Coulomb energy
  Uhub:   LDA+U energy
  Ucs:    constraint energy for spin orientation
  Uzs:    Zeeman term for spin magnetic moment
  Uzo:    Zeeman term for orbital magnetic moment
  Uef:    electric energy by electric field
  UvdW:   semi-empirical vdW energy 

  (see also PRB 72, 045121(2005) for the energy contributions)


*******************************************************
           Computational times (s) at MD =14            
*******************************************************

  DFT in total      =   58.15636

  Set_OLP_Kin       =    1.01007
  Set_Nonlocal      =    3.28357
  Set_ProExpn_VNA   =    1.90542
  Set_Hamiltonian   =   17.77881
  Poisson           =    0.44027
  diagonalization   =   17.99438
  Mixing_DM         =    0.11231
  Force             =    5.08905
  Total_Energy      =    0.55469
  Set_Aden_Grid     =    0.16514
  Set_Orbitals_Grid =    0.17278
  Set_Density_Grid  =    9.22813
  RestartFileDFT    =    0.05216
  Mulliken_Charge   =    0.00252
  FFT(2D)_Density   =    0.00000

*******************************************************
             MD or geometry opt. at MD =14              
*******************************************************

<BFGS>  |Maximum force| (Hartree/Bohr) = 0.000000008767
<BFGS>  Criterion       (Hartree/Bohr) = 0.000000010000

     atom=   1, XYZ(ang) Fxyz(a.u.)=   1.8773    1.0838   50.0000     0.0000   -0.0000   -0.0000
     atom=   2, XYZ(ang) Fxyz(a.u.)=   3.7545    2.1677   48.4420    -0.0000    0.0000   -0.0000
     atom=   3, XYZ(ang) Fxyz(a.u.)=   3.7545    2.1677   51.5580    -0.0000    0.0000    0.0000

outputting data on grids to files...


***********************************************************
***********************************************************
               Computational Time (second)                 
***********************************************************
***********************************************************

                               Min_ID   Min_Time       Max_ID   Max_Time
   Total Computational Time =     2     1078.114          0     1078.167
   readfile                 =     0       10.776          3       10.776
   truncation               =     3        4.177          2        4.600
   MD_pac                   =     0        0.003          3        0.004
   OutData                  =     3        0.713          0        0.766
   DFT                      =     2     1062.016          3     1062.438

*** In DFT ***

   Set_OLP_Kin              =     3        2.449          1       16.862
   Set_Nonlocal             =     1       43.762          3       58.588
   Set_ProExpn_VNA          =     3       15.086          1       27.604
   Set_Hamiltonian          =     0      363.755          3      363.757
   Poisson                  =     0        8.665          3        8.667
   Diagonalization          =     1      329.832          0      331.306
   Mixing_DM                =     0        2.577          3        2.578
   Force                    =     0       70.498          1       70.498
   Total_Energy             =     2        7.403          0        7.405
   Set_Aden_Grid            =     1        0.837          3       13.417
   Set_Orbitals_Grid        =     3        0.000          2        3.330
   Set_Density_Grid         =     1      179.397          3      180.211
   RestartFileDFT           =     2        0.382          3        3.405
   Mulliken_Charge          =     1        0.047          2        0.047
   FFT(2D)_Density          =     0        0.000          0        0.000
   Others                   =     0        5.930          1        7.001

The calculation was normally finished.
