
     Program PWSCF v.5.0.1 starts on  7Oct2013 at 16:49:10 

     This program is part of the open-source Quantum ESPRESSO suite
     for quantum simulation of materials; please cite
         "P. Giannozzi et al., J. Phys.:Condens. Matter 21 395502 (2009);
          URL http://www.quantum-espresso.org", 
     in publications or presentations arising from this work. More details at
     http://www.quantum-espresso.org/quote.php

     Parallel version (MPI), running on     1 processors

     Current dimensions of program PWSCF are:
     Max number of different atomic species (ntypx) = 10
     Max number of k-points (npk) =  40000
     Max angular momentum in pseudopotentials (lmaxx) =  3
     Waiting for input...
     Reading input from standard input

     Subspace diagonalization in iterative solution of the eigenvalue problem:
     a serial algorithm will be used


     G-vector sticks info
     --------------------
     sticks:   dense  smooth     PW     G-vecs:    dense   smooth      PW
     Sum         349     349    121                 4159     4159     833



     bravais-lattice index     =            0
     lattice parameter (alat)  =       7.0103  a.u.
     unit-cell volume          =     245.3705 (a.u.)^3
     number of atoms/cell      =            2
     number of atomic types    =            1
     number of electrons       =        10.00
     number of Kohn-Sham states=            9
     kinetic-energy cutoff     =      25.0000  Ry
     charge density cutoff     =     100.0000  Ry
     convergence threshold     =      1.0E-07
     mixing beta               =       0.7000
     number of iterations used =            8  plain     mixing
     Exchange-correlation      =  SLA  PZ   NOGX NOGC ( 1 1 0 0 0)
     EXX-fraction              =        0.00
     nstep                     =           55


     celldm(1)=   0.000000  celldm(2)=   0.000000  celldm(3)=   0.000000
     celldm(4)=   0.000000  celldm(5)=   0.000000  celldm(6)=   0.000000

     crystal axes: (cart. coord. in units of alat)
               a(1) = (   0.580130   0.000000   0.814524 )  
               a(2) = (  -0.290065   0.502407   0.814524 )  
               a(3) = (  -0.290065  -0.502407   0.814524 )  

     reciprocal axes: (cart. coord. in units 2 pi/alat)
               b(1) = (  1.149169  0.000000  0.409237 )  
               b(2) = ( -0.574584  0.995209  0.409237 )  
               b(3) = ( -0.574584 -0.995209  0.409237 )  


     PseudoPot. # 1 for As read from file:
     /somefolder/As.pz-bhs.UPF
     MD5 check sum: 451cd3365afcfc94d28b1934951c34a8
     Pseudo is Norm-conserving, Zval =  5.0
     Generated by new atomic code, or converted to UPF format
     Using radial grid of  525 points,  2 beta functions with: 
                l(1) =   0
                l(2) =   1

     atomic species   valence    mass     pseudopotential
        As             5.00    74.90000     As( 1.00)

      cell mass =   0.00700 AMU/(a.u.)^2 

     12 Sym. Ops., with inversion, found



   Cartesian axes

     site n.     atom                  positions (alat units)
         1           As  tau(   1) = (   0.0000001   0.0000000   0.7086605  )
         2           As  tau(   2) = (  -0.0000001   0.0000000  -0.7086605  )

     number of k points=    10  Methfessel-Paxton smearing, width (Ry)=  0.0050
                       cart. coord. in units 2pi/alat
        k(    1) = (   0.0000000   0.0000000   0.1534638), wk =   0.0625000
        k(    2) = (  -0.1436461  -0.2488023   0.2557731), wk =   0.1875000
        k(    3) = (   0.2872922   0.4976046  -0.0511547), wk =   0.1875000
        k(    4) = (   0.1436461   0.2488023   0.0511546), wk =   0.1875000
        k(    5) = (  -0.2872922   0.0000000   0.3580823), wk =   0.1875000
        k(    6) = (   0.1436461   0.7464070   0.0511546), wk =   0.3750000
        k(    7) = (   0.0000000   0.4976046   0.1534638), wk =   0.3750000
        k(    8) = (   0.5745844   0.0000000  -0.2557731), wk =   0.1875000
        k(    9) = (   0.0000000   0.0000000   0.4603915), wk =   0.0625000
        k(   10) = (   0.4309383   0.7464070   0.1534638), wk =   0.1875000

     Dense  grid:     4159 G-vectors     FFT dimensions: (  24,  24,  24)

     Largest allocated arrays     est. size (Mb)     dimensions
        Kohn-Sham Wavefunctions         0.07 Mb     (    531,    9)
        NL pseudopotentials             0.06 Mb     (    531,    8)
        Each V/rho on FFT grid          0.21 Mb     (  13824)
        Each G-vector array             0.03 Mb     (   4159)
        G-vector shells                 0.03 Mb     (   4159)
     Largest temporary arrays     est. size (Mb)     dimensions
        Auxiliary wavefunctions         0.29 Mb     (    531,   36)
        Each subspace H/S matrix        0.02 Mb     (  36,  36)
        Each <psi_i|beta_j> matrix      0.00 Mb     (      8,    9)
        Arrays for rho mixing           1.69 Mb     (  13824,   8)

     Initial potential from superposition of free atoms

     starting charge    9.99960, renormalised to   10.00000
     Starting wfc are    8 randomized atomic wfcs

     total cpu time spent up to now is        0.4 secs

     per-process dynamical memory:     7.2 Mb

     Self-consistent Calculation

     iteration #  1     ecut=    25.00 Ry     beta=0.70
     Davidson diagonalization with overlap
     ethr =  1.00E-02,  avg # of iterations =  4.3

     Threshold (ethr) on eigenvalues was too large:
     Diagonalizing with lowered threshold

     Davidson diagonalization with overlap
     ethr =  1.54E-04,  avg # of iterations =  1.5

     total cpu time spent up to now is        0.7 secs

          k = 0.0000 0.0000 0.1535     band energies (ev):

    -7.1053   4.3672   5.8103   5.8103   8.3765  10.9345  11.7163  11.7166
    16.4821

          k =-0.1436-0.2488 0.2558     band energies (ev):

    -6.0372   0.2617   5.2399   5.5079   9.2633  10.3987  11.6103  13.5109
    15.6328

          k = 0.2873 0.4976-0.0512     band energies (ev):

    -4.4678  -2.5869   4.6602   6.0474   7.8159  10.7318  12.4772  13.7299
    17.6610

          k = 0.1436 0.2488 0.0512     band energies (ev):

    -6.4802   1.1693   4.8513   7.0575   8.4284  10.7694  12.3698  13.8791
    15.2983

          k =-0.2873 0.0000 0.3581     band energies (ev):

    -5.6571   0.9853   3.4682   4.1709   7.4349  10.3774  13.6201  13.6878
    16.8166

          k = 0.1436 0.7464 0.0512     band energies (ev):

    -3.9622  -1.9357   2.2453   4.1429   7.9252  11.5629  13.2833  15.6260
    17.2402

          k = 0.0000 0.4976 0.1535     band energies (ev):

    -4.8284  -1.6008   2.9139   6.5815   7.6487  12.2409  12.9989  13.3681
    15.9866

          k = 0.5746 0.0000-0.2558     band energies (ev):

    -4.1784  -1.6215   3.5882   3.6242   5.9359  10.0385  15.7916  17.6329
    18.3762

          k = 0.0000 0.0000 0.4604     band energies (ev):

    -5.9719   0.7085   5.7288   5.7288   7.3743  10.0049  10.0050  11.9991
    17.4438

          k = 0.4309 0.7464 0.1535     band energies (ev):

    -4.9671  -0.1863   2.3479   4.6529   7.4528  11.5756  11.9685  14.4005
    17.7434

     the Fermi energy is     9.6595 ev

     total energy              =     -25.43995304 Ry
     Harris-Foulkes estimate   =     -25.44370905 Ry
     estimated scf accuracy    <       0.01555592 Ry

     iteration #  2     ecut=    25.00 Ry     beta=0.70
     Davidson diagonalization with overlap
     ethr =  1.56E-04,  avg # of iterations =  1.0

     total cpu time spent up to now is        0.9 secs

          k = 0.0000 0.0000 0.1535     band energies (ev):

    -7.0136   4.5096   5.9382   5.9382   8.4243  11.0300  11.7526  11.7529
    16.5540

          k =-0.1436-0.2488 0.2558     band energies (ev):

    -5.9431   0.3743   5.3357   5.6225   9.2929  10.5195  11.6920  13.5523
    15.7040

          k = 0.2873 0.4976-0.0512     band energies (ev):

    -4.3681  -2.4876   4.7632   6.1415   7.8722  10.8059  12.5734  13.8145
    17.7127

          k = 0.1436 0.2488 0.0512     band energies (ev):

    -6.3871   1.2852   4.9606   7.1600   8.5304  10.7972  12.4587  13.9540
    15.3385

          k =-0.2873 0.0000 0.3581     band energies (ev):

    -5.5613   1.1094   3.5498   4.2738   7.5077  10.4115  13.6943  13.7628
    16.8963

          k = 0.1436 0.7464 0.0512     band energies (ev):

    -3.8589  -1.8286   2.3105   4.2331   8.0395  11.6120  13.3113  15.7101
    17.3372

          k = 0.0000 0.4976 0.1535     band energies (ev):

    -4.7307  -1.4912   2.9827   6.6809   7.7627  12.2949  13.0569  13.4189
    16.0825

          k = 0.5746 0.0000-0.2558     band energies (ev):

    -4.0731  -1.5257   3.6853   3.7196   6.0134  10.0512  15.9001  17.7088
    18.4680

          k = 0.0000 0.0000 0.4604     band energies (ev):

    -5.8776   0.8254   5.8545   5.8545   7.4019  10.0553  10.0553  12.1124
    17.4020

          k = 0.4309 0.7464 0.1535     band energies (ev):

    -4.8691  -0.0638   2.4169   4.7580   7.5020  11.6693  12.0527  14.4663
    17.7709

     the Fermi energy is     9.9954 ev

     total energy              =     -25.44007840 Ry
     Harris-Foulkes estimate   =     -25.44026102 Ry
     estimated scf accuracy    <       0.00088841 Ry

     iteration #  3     ecut=    25.00 Ry     beta=0.70
     Davidson diagonalization with overlap
     ethr =  8.88E-06,  avg # of iterations =  2.3

     total cpu time spent up to now is        1.0 secs

          k = 0.0000 0.0000 0.1535     band energies (ev):

    -6.9925   4.5238   5.9708   5.9708   8.4390  11.0431  11.7624  11.7626
    16.5648

          k =-0.1436-0.2488 0.2558     band energies (ev):

    -5.9212   0.3955   5.3531   5.6542   9.3021  10.5329  11.7027  13.5663
    15.7179

          k = 0.2873 0.4976-0.0512     band energies (ev):

    -4.3449  -2.4669   4.7919   6.1571   7.8812  10.8176  12.5864  13.8274
    17.7278

          k = 0.1436 0.2488 0.0512     band energies (ev):

    -6.3659   1.3088   4.9895   7.1745   8.5454  10.8074  12.4732  13.9644
    15.3516

          k =-0.2873 0.0000 0.3581     band energies (ev):

    -5.5387   1.1309   3.5673   4.3008   7.5167  10.4236  13.7113  13.7778
    16.9053

          k = 0.1436 0.7464 0.0512     band energies (ev):

    -3.8348  -1.8059   2.3286   4.2478   8.0560  11.6233  13.3242  15.7237
    17.3517

          k = 0.0000 0.4976 0.1535     band energies (ev):

    -4.7086  -1.4679   3.0039   6.6939   7.7803  12.3056  13.0710  13.4313
    16.0977

          k = 0.5746 0.0000-0.2558     band energies (ev):

    -4.0499  -1.5019   3.7113   3.7305   6.0253  10.0604  15.9150  17.7186
    18.4809

          k = 0.0000 0.0000 0.4604     band energies (ev):

    -5.8544   0.8378   5.8879   5.8880   7.4153  10.0644  10.0645  12.1203
    17.3937

          k = 0.4309 0.7464 0.1535     band energies (ev):

    -4.8447  -0.0466   2.4351   4.7864   7.5101  11.6865  12.0668  14.4793
    17.7696

     the Fermi energy is    10.0046 ev

     total energy              =     -25.44011434 Ry
     Harris-Foulkes estimate   =     -25.44011580 Ry
     estimated scf accuracy    <       0.00000523 Ry

     iteration #  4     ecut=    25.00 Ry     beta=0.70
     Davidson diagonalization with overlap
     ethr =  5.23E-08,  avg # of iterations =  3.1

     total cpu time spent up to now is        1.2 secs

          k = 0.0000 0.0000 0.1535     band energies (ev):

    -6.9951   4.5218   5.9678   5.9678   8.4363  11.0416  11.7604  11.7604
    16.5651

          k =-0.1436-0.2488 0.2558     band energies (ev):

    -5.9241   0.3930   5.3522   5.6510   9.2998  10.5321  11.7016  13.5634
    15.7174

          k = 0.2873 0.4976-0.0512     band energies (ev):

    -4.3480  -2.4694   4.7891   6.1565   7.8802  10.8158  12.5861  13.8271
    17.7266

          k = 0.1436 0.2488 0.0512     band energies (ev):

    -6.3686   1.3055   4.9868   7.1734   8.5448  10.8050  12.4713  13.9622
    15.3512

          k =-0.2873 0.0000 0.3581     band energies (ev):

    -5.5418   1.1280   3.5665   4.2986   7.5168  10.4219  13.7083  13.7754
    16.9056

          k = 0.1436 0.7464 0.0512     band energies (ev):

    -3.8383  -1.8088   2.3274   4.2476   8.0553  11.6209  13.3233  15.7213
    17.3502

          k = 0.0000 0.4976 0.1535     band energies (ev):

    -4.7115  -1.4710   3.0020   6.6939   7.7791  12.3040  13.0680  13.4308
    16.0973

          k = 0.5746 0.0000-0.2558     band energies (ev):

    -4.0531  -1.5053   3.7091   3.7309   6.0252  10.0591  15.9127  17.7162
    18.4788

          k = 0.0000 0.0000 0.4604     band energies (ev):

    -5.8577   0.8377   5.8850   5.8850   7.4115  10.0632  10.0633  12.1209
    17.3936

          k = 0.4309 0.7464 0.1535     band energies (ev):

    -4.8484  -0.0482   2.4343   4.7839   7.5094  11.6840  12.0652  14.4768
    17.7702

     the Fermi energy is    10.0034 ev

     total energy              =     -25.44012214 Ry
     Harris-Foulkes estimate   =     -25.44012246 Ry
     estimated scf accuracy    <       0.00000069 Ry

     iteration #  5     ecut=    25.00 Ry     beta=0.70
     Davidson diagonalization with overlap
     ethr =  6.94E-09,  avg # of iterations =  1.4

     total cpu time spent up to now is        1.3 secs

     End of self-consistent calculation

          k = 0.0000 0.0000 0.1535 (   531 PWs)   bands (ev):

    -6.9960   4.5196   5.9667   5.9667   8.4360  11.0403  11.7601  11.7601
    16.5645

          k =-0.1436-0.2488 0.2558 (   522 PWs)   bands (ev):

    -5.9250   0.3917   5.3512   5.6501   9.2996  10.5303  11.7005  13.5632
    15.7167

          k = 0.2873 0.4976-0.0512 (   520 PWs)   bands (ev):

    -4.3490  -2.4704   4.7883   6.1554   7.8796  10.8149  12.5849  13.8261
    17.7262

          k = 0.1436 0.2488 0.0512 (   525 PWs)   bands (ev):

    -6.3695   1.3043   4.9860   7.1720   8.5435  10.8049  12.4702  13.9612
    15.3511

          k =-0.2873 0.0000 0.3581 (   519 PWs)   bands (ev):

    -5.5427   1.1264   3.5658   4.2978   7.5159  10.4217  13.7076  13.7746
    16.9045

          k = 0.1436 0.7464 0.0512 (   510 PWs)   bands (ev):

    -3.8393  -1.8099   2.3270   4.2466   8.0539  11.6204  13.3234  15.7202
    17.3489

          k = 0.0000 0.4976 0.1535 (   521 PWs)   bands (ev):

    -4.7124  -1.4722   3.0016   6.6926   7.7777  12.3034  13.0675  13.4304
    16.0962

          k = 0.5746 0.0000-0.2558 (   510 PWs)   bands (ev):

    -4.0542  -1.5061   3.7084   3.7296   6.0243  10.0593  15.9112  17.7151
    18.4776

          k = 0.0000 0.0000 0.4604 (   522 PWs)   bands (ev):

    -5.8586   0.8361   5.8840   5.8840   7.4114  10.0627  10.0627  12.1191
    17.3944

          k = 0.4309 0.7464 0.1535 (   520 PWs)   bands (ev):

    -4.8492  -0.0498   2.4338   4.7831   7.5088  11.6828  12.0642  14.4760
    17.7700

     the Fermi energy is    10.0033 ev

!    total energy              =     -25.44012222 Ry
     Harris-Foulkes estimate   =     -25.44012223 Ry
     estimated scf accuracy    <       0.00000002 Ry

     convergence has been achieved in   5 iterations

     Forces acting on atoms (Ry/au):

     atom    1 type  1   force =     0.00000000    0.00000000   -0.12659777
     atom    2 type  1   force =     0.00000000    0.00000000    0.12659777

     Total force =     0.179036     Total SCF correction =     0.000024


     entering subroutine stress ...

          total   stress  (Ry/bohr**3)                   (kbar)     P=  217.52
   0.00172374   0.00000000  -0.00000000        253.57      0.00     -0.00
  -0.00000000   0.00172374  -0.00000000         -0.00    253.57     -0.00
  -0.00000000   0.00000000   0.00098853         -0.00      0.00    145.42


     Wentzcovitch Damped Cell-Dynamics Minimization
     convergence thresholds: EPSE = 0.10E-04  EPSF = 0.10E-03  EPSP = 0.50E+00

     Entering Dynamics;  it =     1   time =  0.00000 pico-seconds

  new lattice vectors (alat unit) :
   0.589711141  -0.000000000   0.822239221
  -0.294855381   0.510704782   0.822239223
  -0.294855381  -0.510704782   0.822239223
  new unit-cell volume =    255.9441 (a.u.)^3
  new positions in cryst coord
As       0.288386168   0.288386167   0.288386167
As      -0.288386168  -0.288386167  -0.288386167
  new positions in cart coord (alat unit)
As       0.000000110   0.000000000   0.711367254
As      -0.000000110   0.000000000  -0.711367254

     Ekin =     0.00000000 Ry    T =    0.0 K  Etot =   -25.44012222
     new unit-cell volume =    255.94412 a.u.^3 (    37.92700 Ang^3 )

CELL_PARAMETERS (alat=  7.01033623)
   0.589711141  -0.000000000   0.822239221
  -0.294855381   0.510704782   0.822239223
  -0.294855381  -0.510704782   0.822239223

ATOMIC_POSITIONS (crystal)
As       0.288386168   0.288386167   0.288386167
As      -0.288386168  -0.288386167  -0.288386167



     Writing output data file pwscf.save
     NEW-OLD atomic charge density approx. for the potential
     NEW k-points:
        k(    1) = (   0.0000000   0.0000000   0.1520239), wk =   0.0625000
        k(    2) = (  -0.1413122  -0.2447598   0.2533732), wk =   0.1875000
        k(    3) = (   0.2826243   0.4895196  -0.0506747), wk =   0.1875000
        k(    4) = (   0.1413122   0.2447598   0.0506746), wk =   0.1875000
        k(    5) = (  -0.2826243   0.0000000   0.3547224), wk =   0.1875000
        k(    6) = (   0.1413122   0.7342794   0.0506746), wk =   0.3750000
        k(    7) = (   0.0000000   0.4895196   0.1520239), wk =   0.3750000
        k(    8) = (   0.5652486   0.0000000  -0.2533732), wk =   0.1875000
        k(    9) = (   0.0000000   0.0000000   0.4560717), wk =   0.0625000
        k(   10) = (   0.4239365   0.7342794   0.1520238), wk =   0.1875000
     extrapolated charge   10.41311, renormalised to   10.00000

     total cpu time spent up to now is        1.9 secs

     per-process dynamical memory:    11.1 Mb

     Self-consistent Calculation

     iteration #  1     ecut=    25.00 Ry     beta=0.70
     Davidson diagonalization with overlap
     ethr =  1.00E-06,  avg # of iterations =  4.3

     total cpu time spent up to now is        2.1 secs

          k = 0.0000 0.0000 0.1520     band energies (ev):

    -7.1074   3.7290   5.6123   5.6123   7.8024  10.3847  11.1709  11.1709
    15.7010

          k =-0.1413-0.2448 0.2534     band energies (ev):

    -6.0616  -0.0513   4.9040   5.3703   8.6078   9.7381  10.8931  12.8693
    14.9057

          k = 0.2826 0.4895-0.0507     band energies (ev):

    -4.5429  -2.7625   4.5170   5.6485   7.2005  10.1476  11.7431  12.9851
    16.9590

          k = 0.1413 0.2448 0.0507     band energies (ev):

    -6.5079   0.8623   4.6665   6.5580   7.9221  10.2873  11.5764  13.1928
    14.6511

          k =-0.2826 0.0000 0.3547     band energies (ev):

    -5.6784   0.6199   3.1807   3.9660   6.8313   9.8695  12.8906  13.0615
    15.8796

          k = 0.1413 0.7343 0.0507     band energies (ev):

    -4.0322  -2.1313   2.0215   3.7617   7.4206  10.8688  12.6735  14.9544
    16.3809

          k = 0.0000 0.4895 0.1520     band energies (ev):

    -4.9043  -1.7968   2.7383   6.0653   7.2303  11.4930  12.3021  12.7663
    15.2354

          k = 0.5652 0.0000-0.2534     band energies (ev):

    -4.2696  -1.7523   3.1341   3.4018   5.4251   9.5831  15.0253  16.7250
    17.3694

          k = 0.0000 0.0000 0.4561     band energies (ev):

    -5.9543   0.2669   5.5496   5.5496   6.7375   9.4075   9.4075  11.1725
    16.5448

          k = 0.4239 0.7343 0.1520     band energies (ev):

    -4.9662  -0.5764   2.1104   4.4676   6.8257  10.9280  11.3176  13.7715
    16.8231

     the Fermi energy is     8.9980 ev

     total energy              =     -25.45860857 Ry
     Harris-Foulkes estimate   =     -25.70449985 Ry
     estimated scf accuracy    <       0.00082347 Ry

     iteration #  2     ecut=    25.00 Ry     beta=0.70
     Davidson diagonalization with overlap
     ethr =  8.23E-06,  avg # of iterations =  3.1

     total cpu time spent up to now is        2.3 secs

          k = 0.0000 0.0000 0.1520     band energies (ev):

    -7.1970   3.6546   5.4706   5.4706   7.7505  10.3660  11.1431  11.1431
    15.8495

          k =-0.1413-0.2448 0.2534     band energies (ev):

    -6.1653  -0.1478   4.9210   5.2190   8.5708   9.7593  10.9342  12.8213
    15.0177

          k = 0.2826 0.4895-0.0507     band energies (ev):

    -4.6641  -2.8501   4.3955   5.6892   7.2325  10.1290  11.8101  13.0440
    17.0034

          k = 0.1413 0.2448 0.0507     band energies (ev):

    -6.5971   0.7190   4.5542   6.5513   7.9547  10.2456  11.5508  13.1533
    14.7498

          k =-0.2826 0.0000 0.3547     band energies (ev):

    -5.7978   0.5020   3.2061   3.8838   6.9185   9.8721  12.8007  12.9978
    15.9980

          k = 0.1413 0.7343 0.0507     band energies (ev):

    -4.1797  -2.2485   2.0299   3.8296   7.4380  10.8237  12.7231  14.9100
    16.3759

          k = 0.0000 0.4895 0.1520     band energies (ev):

    -5.0096  -1.9286   2.6931   6.1474   7.2164  11.4983  12.2213  12.8394
    15.2997

          k = 0.5652 0.0000-0.2534     band energies (ev):

    -4.4013  -1.8968   3.2386   3.3270   5.4982   9.6257  14.9636  16.6941
    17.3373

          k = 0.0000 0.0000 0.4561     band energies (ev):

    -6.0915   0.3256   5.4103   5.4103   6.6355   9.4299   9.4299  11.2676
    16.6907

          k = 0.4239 0.7343 0.1520     band energies (ev):

    -5.1269  -0.6092   2.1473   4.3679   6.8793  10.8490  11.3014  13.7066
    16.9810

     the Fermi energy is     8.9462 ev

     total energy              =     -25.46012358 Ry
     Harris-Foulkes estimate   =     -25.46039813 Ry
     estimated scf accuracy    <       0.00067885 Ry

     iteration #  3     ecut=    25.00 Ry     beta=0.70
     Davidson diagonalization with overlap
     ethr =  6.79E-06,  avg # of iterations =  1.0

     total cpu time spent up to now is        2.5 secs

          k = 0.0000 0.0000 0.1520     band energies (ev):

    -7.1659   3.6731   5.5080   5.5080   7.7795  10.3825  11.1673  11.1673
    15.8488

          k =-0.1413-0.2448 0.2534     band energies (ev):

    -6.1324  -0.1193   4.9345   5.2590   8.5989   9.7662  10.9432  12.8509
    15.0215

          k = 0.2826 0.4895-0.0507     band energies (ev):

    -4.6290  -2.8210   4.4318   5.6988   7.2464  10.1481  11.8149  13.0517
    17.0219

          k = 0.1413 0.2448 0.0507     band energies (ev):

    -6.5663   0.7544   4.5885   6.5662   7.9634  10.2744  11.5706  13.1749
    14.7609

          k =-0.2826 0.0000 0.3547     band energies (ev):

    -5.7627   0.5320   3.2208   3.9142   6.9215   9.8958  12.8322  13.0241
    15.9968

          k = 0.1413 0.7343 0.0507     band energies (ev):

    -4.1413  -2.2155   2.0496   3.8359   7.4479  10.8503  12.7413  14.9325
    16.3917

          k = 0.0000 0.4895 0.1520     band energies (ev):

    -4.9769  -1.8937   2.7207   6.1498   7.2309  11.5174  12.2523  12.8504
    15.3065

          k = 0.5652 0.0000-0.2534     band energies (ev):

    -4.3656  -1.8580   3.2376   3.3567   5.5040   9.6453  14.9854  16.7169
    17.3555

          k = 0.0000 0.0000 0.4561     band energies (ev):

    -6.0534   0.3277   5.4483   5.4483   6.6761   9.4450   9.4450  11.2633
    16.6991

          k = 0.4239 0.7343 0.1520     band energies (ev):

    -5.0857  -0.5923   2.1625   4.4010   6.8908  10.8765  11.3194  13.7337
    16.9809

     the Fermi energy is     8.9688 ev

     total energy              =     -25.46010236 Ry
     Harris-Foulkes estimate   =     -25.46015334 Ry
     estimated scf accuracy    <       0.00014945 Ry

     iteration #  4     ecut=    25.00 Ry     beta=0.70
     Davidson diagonalization with overlap
     ethr =  1.49E-06,  avg # of iterations =  1.0

     total cpu time spent up to now is        2.6 secs

          k = 0.0000 0.0000 0.1520     band energies (ev):

    -7.1535   3.6834   5.5228   5.5228   7.7902  10.3904  11.1767  11.1767
    15.8496

          k =-0.1413-0.2448 0.2534     band energies (ev):

    -6.1193  -0.1070   4.9411   5.2745   8.6092   9.7717  10.9485  12.8619
    15.0241

          k = 0.2826 0.4895-0.0507     band energies (ev):

    -4.6151  -2.8090   4.4459   5.7040   7.2527  10.1565  11.8188  13.0564
    17.0288

          k = 0.1413 0.2448 0.0507     band energies (ev):

    -6.5539   0.7691   4.6019   6.5738   7.9687  10.2849  11.5796  13.1844
    14.7649

          k =-0.2826 0.0000 0.3547     band energies (ev):

    -5.7488   0.5451   3.2273   3.9262   6.9246   9.9043  12.8446  13.0350
    15.9985

          k = 0.1413 0.7343 0.0507     band energies (ev):

    -4.1261  -2.2020   2.0574   3.8400   7.4539  10.8606  12.7479  14.9423
    16.3994

          k = 0.0000 0.4895 0.1520     band energies (ev):

    -4.9638  -1.8795   2.7313   6.1529   7.2385  11.5253  12.2644  12.8552
    15.3109

          k = 0.5652 0.0000-0.2534     band energies (ev):

    -4.3513  -1.8429   3.2396   3.3684   5.5078   9.6520  14.9957  16.7267
    17.3642

          k = 0.0000 0.0000 0.4561     band energies (ev):

    -6.0385   0.3316   5.4631   5.4631   6.6900   9.4516   9.4516  11.2652
    16.7016

          k = 0.4239 0.7343 0.1520     band energies (ev):

    -5.0698  -0.5836   2.1687   4.4140   6.8961  10.8880  11.3277  13.7446
    16.9818

     the Fermi energy is     8.9787 ev

     total energy              =     -25.46008426 Ry
     Harris-Foulkes estimate   =     -25.46010847 Ry
     estimated scf accuracy    <       0.00004697 Ry

     iteration #  5     ecut=    25.00 Ry     beta=0.70
     Davidson diagonalization with overlap
     ethr =  4.70E-07,  avg # of iterations =  2.6

     total cpu time spent up to now is        2.7 secs

          k = 0.0000 0.0000 0.1520     band energies (ev):

    -7.1413   3.6937   5.5373   5.5373   7.8005  10.3982  11.1861  11.1861
    15.8503

          k =-0.1413-0.2448 0.2534     band energies (ev):

    -6.1064  -0.0949   4.9476   5.2896   8.6194   9.7773  10.9539  12.8728
    15.0268

          k = 0.2826 0.4895-0.0507     band energies (ev):

    -4.6014  -2.7970   4.4596   5.7093   7.2590  10.1649  11.8229  13.0612
    17.0355

          k = 0.1413 0.2448 0.0507     band energies (ev):

    -6.5418   0.7835   4.6152   6.5814   7.9741  10.2951  11.5885  13.1939
    14.7688

          k =-0.2826 0.0000 0.3547     band energies (ev):

    -5.7352   0.5581   3.2337   3.9380   6.9277   9.9126  12.8569  13.0458
    16.0004

          k = 0.1413 0.7343 0.0507     band energies (ev):

    -4.1112  -2.1886   2.0651   3.8441   7.4600  10.8707  12.7543  14.9520
    16.4072

          k = 0.0000 0.4895 0.1520     band energies (ev):

    -4.9509  -1.8655   2.7417   6.1561   7.2460  11.5330  12.2763  12.8600
    15.3153

          k = 0.5652 0.0000-0.2534     band energies (ev):

    -4.3372  -1.8281   3.2418   3.3799   5.5116   9.6586  15.0061  16.7365
    17.3729

          k = 0.0000 0.0000 0.4561     band energies (ev):

    -6.0240   0.3356   5.4777   5.4777   6.7035   9.4582   9.4582  11.2673
    16.7041

          k = 0.4239 0.7343 0.1520     band energies (ev):

    -5.0541  -0.5748   2.1748   4.4267   6.9014  10.8993  11.3359  13.7555
    16.9828

     the Fermi energy is     8.9887 ev

     total energy              =     -25.46009203 Ry
     Harris-Foulkes estimate   =     -25.46009262 Ry
     estimated scf accuracy    <       0.00000113 Ry

     iteration #  6     ecut=    25.00 Ry     beta=0.70
     Davidson diagonalization with overlap
     ethr =  1.13E-08,  avg # of iterations =  2.2

     total cpu time spent up to now is        2.9 secs

          k = 0.0000 0.0000 0.1520     band energies (ev):

    -7.1384   3.6962   5.5408   5.5408   7.8031  10.4002  11.1882  11.1882
    15.8506

          k =-0.1413-0.2448 0.2534     band energies (ev):

    -6.1033  -0.0920   4.9492   5.2932   8.6218   9.7787  10.9552  12.8753
    15.0275

          k = 0.2826 0.4895-0.0507     band energies (ev):

    -4.5981  -2.7942   4.4629   5.7106   7.2605  10.1669  11.8239  13.0623
    17.0371

          k = 0.1413 0.2448 0.0507     band energies (ev):

    -6.5389   0.7869   4.6183   6.5832   7.9754  10.2975  11.5906  13.1961
    14.7698

          k =-0.2826 0.0000 0.3547     band energies (ev):

    -5.7319   0.5612   3.2353   3.9408   6.9285   9.9146  12.8598  13.0483
    16.0009

          k = 0.1413 0.7343 0.0507     band energies (ev):

    -4.1077  -2.1855   2.0669   3.8451   7.4615  10.8731  12.7559  14.9544
    16.4091

          k = 0.0000 0.4895 0.1520     band energies (ev):

    -4.9478  -1.8622   2.7441   6.1569   7.2479  11.5348  12.2791  12.8611
    15.3164

          k = 0.5652 0.0000-0.2534     band energies (ev):

    -4.3338  -1.8245   3.2424   3.3826   5.5126   9.6602  15.0085  16.7388
    17.3750

          k = 0.0000 0.0000 0.4561     band energies (ev):

    -6.0205   0.3366   5.4811   5.4811   6.7068   9.4598   9.4598  11.2679
    16.7048

          k = 0.4239 0.7343 0.1520     band energies (ev):

    -5.0504  -0.5727   2.1763   4.4297   6.9027  10.9020  11.3378  13.7581
    16.9830

     the Fermi energy is     8.9911 ev

     total energy              =     -25.46009239 Ry
     Harris-Foulkes estimate   =     -25.46009248 Ry
     estimated scf accuracy    <       0.00000020 Ry

     iteration #  7     ecut=    25.00 Ry     beta=0.70
     Davidson diagonalization with overlap
     ethr =  2.02E-09,  avg # of iterations =  1.1

     total cpu time spent up to now is        3.0 secs

     End of self-consistent calculation

          k = 0.0000 0.0000 0.1520 (   531 PWs)   bands (ev):

    -7.1390   3.6957   5.5400   5.5400   7.8026  10.3999  11.1877  11.1877
    15.8506

          k =-0.1413-0.2448 0.2534 (   522 PWs)   bands (ev):

    -6.1040  -0.0926   4.9489   5.2924   8.6213   9.7786  10.9549  12.8748
    15.0274

          k = 0.2826 0.4895-0.0507 (   520 PWs)   bands (ev):

    -4.5988  -2.7948   4.4621   5.7104   7.2602  10.1665  11.8237  13.0622
    17.0367

          k = 0.1413 0.2448 0.0507 (   525 PWs)   bands (ev):

    -6.5395   0.7862   4.6176   6.5829   7.9753  10.2970  11.5902  13.1956
    14.7696

          k =-0.2826 0.0000 0.3547 (   519 PWs)   bands (ev):

    -5.7326   0.5606   3.2350   3.9402   6.9285   9.9142  12.8592  13.0477
    16.0010

          k = 0.1413 0.7343 0.0507 (   510 PWs)   bands (ev):

    -4.1084  -2.1862   2.0666   3.8450   7.4613  10.8726  12.7556  14.9539
    16.4087

          k = 0.0000 0.4895 0.1520 (   521 PWs)   bands (ev):

    -4.9485  -1.8629   2.7436   6.1568   7.2476  11.5345  12.2785  12.8609
    15.3163

          k = 0.5652 0.0000-0.2534 (   510 PWs)   bands (ev):

    -4.3346  -1.8253   3.2424   3.3820   5.5125   9.6599  15.0079  16.7383
    17.3747

          k = 0.0000 0.0000 0.4561 (   522 PWs)   bands (ev):

    -6.0213   0.3365   5.4803   5.4803   6.7061   9.4594   9.4594  11.2681
    16.7047

          k = 0.4239 0.7343 0.1520 (   520 PWs)   bands (ev):

    -5.0512  -0.5731   2.1761   4.4290   6.9025  10.9015  11.3374  13.7575
    16.9831

     the Fermi energy is     8.9906 ev

!    total energy              =     -25.46009241 Ry
     Harris-Foulkes estimate   =     -25.46009241 Ry
     estimated scf accuracy    <       0.00000001 Ry

     convergence has been achieved in   7 iterations

     Forces acting on atoms (Ry/au):

     atom    1 type  1   force =    -0.00000000    0.00000000   -0.10461245
     atom    2 type  1   force =     0.00000000    0.00000000    0.10461245

     Total force =     0.147944     Total SCF correction =     0.000023


     entering subroutine stress ...

          total   stress  (Ry/bohr**3)                   (kbar)     P=  143.05
   0.00107862   0.00000000  -0.00000000        158.67      0.00     -0.00
   0.00000000   0.00107862   0.00000000          0.00    158.67      0.00
  -0.00000000  -0.00000000   0.00076008         -0.00     -0.00    111.81


     Entering Dynamics;  it =     2   time =  0.00726 pico-seconds

  new lattice vectors (alat unit) :
   0.607380347  -0.000000000   0.838898420
  -0.303689983   0.526006761   0.838898426
  -0.303689983  -0.526006761   0.838898426
  new unit-cell volume =    277.0124 (a.u.)^3
  new positions in cryst coord
As       0.284850377   0.284850374   0.284850374
As      -0.284850377  -0.284850374  -0.284850374
  new positions in cart coord (alat unit)
As       0.000000110   0.000000000   0.716881592
As      -0.000000110   0.000000000  -0.716881592

     Ekin =     0.02014337 Ry    T =  706.8 K  Etot =   -25.43994903
     new unit-cell volume =    277.01236 a.u.^3 (    41.04900 Ang^3 )

CELL_PARAMETERS (alat=  7.01033623)
   0.607380347  -0.000000000   0.838898420
  -0.303689983   0.526006761   0.838898426
  -0.303689983  -0.526006761   0.838898426

ATOMIC_POSITIONS (crystal)
As       0.284850377   0.284850374   0.284850374
As      -0.284850377  -0.284850374  -0.284850374



     Writing output data file pwscf.save
     NEW-OLD atomic charge density approx. for the potential
     NEW k-points:
        k(    1) = (   0.0000000   0.0000000   0.1490049), wk =   0.0625000
        k(    2) = (  -0.1372013  -0.2376395   0.2483416), wk =   0.1875000
        k(    3) = (   0.2744025   0.4752791  -0.0496684), wk =   0.1875000
        k(    4) = (   0.1372013   0.2376395   0.0496683), wk =   0.1875000
        k(    5) = (  -0.2744025   0.0000000   0.3476782), wk =   0.1875000
        k(    6) = (   0.1372013   0.7129186   0.0496683), wk =   0.3750000
        k(    7) = (   0.0000000   0.4752791   0.1490049), wk =   0.3750000
        k(    8) = (   0.5488051   0.0000000  -0.2483416), wk =   0.1875000
        k(    9) = (   0.0000000   0.0000000   0.4470148), wk =   0.0625000
        k(   10) = (   0.4116038   0.7129186   0.1490049), wk =   0.1875000
     extrapolated charge   10.76052, renormalised to   10.00000

     total cpu time spent up to now is        3.7 secs

     per-process dynamical memory:    11.1 Mb

     Self-consistent Calculation

     iteration #  1     ecut=    25.00 Ry     beta=0.70
     Davidson diagonalization with overlap
     ethr =  1.00E-06,  avg # of iterations =  4.9

     total cpu time spent up to now is        4.0 secs

          k = 0.0000 0.0000 0.1490     band energies (ev):

    -7.3267   2.2625   4.9399   4.9399   6.7275   9.2851  10.1417  10.1417
    14.3205

          k =-0.1372-0.2376 0.2483     band energies (ev):

    -6.3374  -0.8969   4.1526   4.8315   7.4397   8.3889   9.5102  11.6732
    13.5739

          k = 0.2744 0.4753-0.0497     band energies (ev):

    -4.9281  -3.3234   4.0080   4.8079   6.0790   8.9824  10.3086  11.4885
    15.6963

          k = 0.1372 0.2376 0.0497     band energies (ev):

    -6.7744  -0.0246   4.0756   5.5231   6.8767   9.3956  10.0302  11.8103
    13.4689

          k =-0.2744 0.0000 0.3477     band energies (ev):

    -5.9665  -0.3759   2.5882   3.3791   5.7117   8.9934  11.4661  11.7857
    14.1574

          k = 0.1372 0.7129 0.0497     band energies (ev):

    -4.4452  -2.7612   1.5243   2.9954   6.3478   9.5800  11.6238  13.5660
    14.6664

          k = 0.0000 0.4753 0.1490     band energies (ev):

    -5.2790  -2.4409   2.2869   5.0437   6.2803  10.0769  10.9352  11.6734
    13.7758

          k = 0.5488 0.0000-0.2483     band energies (ev):

    -4.7102  -2.2769   2.1990   2.8628   4.4627   8.8386  13.4273  14.9499
    15.4218

          k = 0.0000 0.0000 0.4470     band energies (ev):

    -6.1828  -0.7378   4.9268   4.9268   5.6546   8.2988   8.2988   9.6017
    15.1957

          k = 0.4116 0.7129 0.1490     band energies (ev):

    -5.2490  -1.5368   1.6268   3.8985   5.7169   9.6201  10.0226  12.5171
    15.3063

     the Fermi energy is     7.8247 ev

     total energy              =     -25.47744716 Ry
     Harris-Foulkes estimate   =     -25.91217923 Ry
     estimated scf accuracy    <       0.00269231 Ry

     iteration #  2     ecut=    25.00 Ry     beta=0.70
     Davidson diagonalization with overlap
     ethr =  2.69E-05,  avg # of iterations =  3.1

     total cpu time spent up to now is        4.2 secs

          k = 0.0000 0.0000 0.1490     band energies (ev):

    -7.5060   2.0433   4.6876   4.6876   6.6490   9.2061  10.0698  10.0699
    14.5823

          k =-0.1372-0.2376 0.2483     band energies (ev):

    -6.5427  -1.1021   4.1431   4.5563   7.3566   8.3921   9.5577  11.5636
    13.7836

          k = 0.2744 0.4753-0.0497     band energies (ev):

    -5.1660  -3.5070   3.7895   4.8426   6.1148   8.9224  10.3807  11.5253
    15.7762

          k = 0.1372 0.2376 0.0497     band energies (ev):

    -6.9540  -0.3084   3.8742   5.4741   6.8886   9.2806   9.9805  11.7160
    13.6747

          k =-0.2744 0.0000 0.3477     band energies (ev):

    -6.1998  -0.6115   2.5939   3.2316   5.8387   8.9531  11.3105  11.6490
    14.3641

          k = 0.1372 0.7129 0.0497     band energies (ev):

    -4.7289  -2.9934   1.5420   3.0768   6.3377   9.4796  11.6972  13.4240
    14.6506

          k = 0.0000 0.4753 0.1490     band energies (ev):

    -5.4889  -2.6998   2.2052   5.1532   6.2132  10.0715  10.7659  11.7386
    13.8996

          k = 0.5488 0.0000-0.2483     band energies (ev):

    -4.9652  -2.5643   2.3522   2.7289   4.5622   8.8985  13.2754  14.8492
    15.3538

          k = 0.0000 0.0000 0.4470     band energies (ev):

    -6.4473  -0.7154   4.6773   4.6773   5.4813   8.3205   8.3205   9.7290
    15.4679

          k = 0.4116 0.7129 0.1490     band energies (ev):

    -5.5576  -1.6344   1.6674   3.7205   5.7951   9.4531   9.9676  12.3691
    15.5869

     the Fermi energy is     7.8155 ev

     total energy              =     -25.48275706 Ry
     Harris-Foulkes estimate   =     -25.48371131 Ry
     estimated scf accuracy    <       0.00243510 Ry

     iteration #  3     ecut=    25.00 Ry     beta=0.70
     Davidson diagonalization with overlap
     ethr =  2.44E-05,  avg # of iterations =  1.0

     total cpu time spent up to now is        4.3 secs

          k = 0.0000 0.0000 0.1490     band energies (ev):

    -7.4482   2.0886   4.7540   4.7540   6.6954   9.2433  10.1150  10.1151
    14.5830

          k =-0.1372-0.2376 0.2483     band energies (ev):

    -6.4816  -1.0482   4.1728   4.6283   7.4102   8.4083   9.5770  11.6179
    13.7917

          k = 0.2744 0.4753-0.0497     band energies (ev):

    -5.1009  -3.4524   3.8546   4.8645   6.1426   8.9600  10.3953  11.5475
    15.8111

          k = 0.1372 0.2376 0.0497     band energies (ev):

    -6.8966  -0.2431   3.9355   5.5073   6.9094   9.3381  10.0159  11.7572
    13.6906

          k =-0.2744 0.0000 0.3477     band energies (ev):

    -6.1348  -0.5564   2.6265   3.2861   5.8471   9.0036  11.3642  11.6981
    14.3636

          k = 0.1372 0.7129 0.0497     band energies (ev):

    -4.6583  -2.9326   1.5771   3.0940   6.3609   9.5290  11.7332  13.4715
    14.6790

          k = 0.0000 0.4753 0.1490     band energies (ev):

    -5.4281  -2.6353   2.2550   5.1626   6.2446  10.1066  10.8237  11.7661
    13.9132

          k = 0.5488 0.0000-0.2483     band energies (ev):

    -4.8995  -2.4929   2.3563   2.7821   4.5763   8.9370  13.3196  14.9001
    15.3818

          k = 0.0000 0.0000 0.4470     band energies (ev):

    -6.3769  -0.7017   4.7451   4.7451   5.5533   8.3493   8.3493   9.7273
    15.4817

          k = 0.4116 0.7129 0.1490     band energies (ev):

    -5.4816  -1.5997   1.6981   3.7799   5.8178   9.5059  10.0024  12.4201
    15.5891

     the Fermi energy is     7.8582 ev

     total energy              =     -25.48267040 Ry
     Harris-Foulkes estimate   =     -25.48285639 Ry
     estimated scf accuracy    <       0.00056797 Ry

     iteration #  4     ecut=    25.00 Ry     beta=0.70
     Davidson diagonalization with overlap
     ethr =  5.68E-06,  avg # of iterations =  1.0

     total cpu time spent up to now is        4.5 secs

          k = 0.0000 0.0000 0.1490     band energies (ev):

    -7.4247   2.1117   4.7807   4.7807   6.7135   9.2602  10.1334  10.1334
    14.5850

          k =-0.1372-0.2376 0.2483     band energies (ev):

    -6.4568  -1.0245   4.1868   4.6565   7.4302   8.4201   9.5881  11.6390
    13.7966

          k = 0.2744 0.4753-0.0497     band energies (ev):

    -5.0746  -3.4292   3.8802   4.8761   6.1554   8.9769  10.4050  11.5596
    15.8242

          k = 0.1372 0.2376 0.0497     band energies (ev):

    -6.8731  -0.2154   3.9599   5.5233   6.9214   9.3593  10.0323  11.7758
    13.6968

          k =-0.2744 0.0000 0.3477     band energies (ev):

    -6.1087  -0.5315   2.6405   3.3079   5.8542   9.0220  11.3863  11.7190
    14.3674

          k = 0.1372 0.7129 0.0497     band energies (ev):

    -4.6299  -2.9071   1.5914   3.1036   6.3740   9.5487  11.7466  13.4925
    14.6934

          k = 0.0000 0.4753 0.1490     band energies (ev):

    -5.4033  -2.6085   2.2743   5.1704   6.2604  10.1216  10.8469  11.7782
    13.9213

          k = 0.5488 0.0000-0.2483     band energies (ev):

    -4.8727  -2.4643   2.3621   2.8033   4.5849   8.9506  13.3405  14.9220
    15.3963

          k = 0.0000 0.0000 0.4470     band energies (ev):

    -6.3491  -0.6905   4.7720   4.7720   5.5781   8.3624   8.3624   9.7334
    15.4861

          k = 0.4116 0.7129 0.1490     band energies (ev):

    -5.4517  -1.5818   1.7108   3.8034   5.8285   9.5280  10.0187  12.4415
    15.5916

     the Fermi energy is     7.8749 ev

     total energy              =     -25.48259700 Ry
     Harris-Foulkes estimate   =     -25.48269156 Ry
     estimated scf accuracy    <       0.00018863 Ry

     iteration #  5     ecut=    25.00 Ry     beta=0.70
     Davidson diagonalization with overlap
     ethr =  1.89E-06,  avg # of iterations =  2.2

     total cpu time spent up to now is        4.6 secs

          k = 0.0000 0.0000 0.1490     band energies (ev):

    -7.4006   2.1358   4.8080   4.8080   6.7320   9.2777  10.1523  10.1523
    14.5872

          k =-0.1372-0.2376 0.2483     band energies (ev):

    -6.4314  -0.9999   4.2014   4.6853   7.4505   8.4326   9.5997  11.6606
    13.8018

          k = 0.2744 0.4753-0.0497     band energies (ev):

    -5.0477  -3.4053   3.9062   4.8883   6.1686   8.9943  10.4152  11.5722
    15.8376

          k = 0.1372 0.2376 0.0497     band energies (ev):

    -6.8491  -0.1869   3.9849   5.5400   6.9339   9.3808  10.0494  11.7951
    13.7031

          k =-0.2744 0.0000 0.3477     band energies (ev):

    -6.0819  -0.5057   2.6549   3.3303   5.8618   9.0406  11.4090  11.7406
    14.3717

          k = 0.1372 0.7129 0.0497     band energies (ev):

    -4.6008  -2.8808   1.6061   3.1137   6.3878   9.5688  11.7602  13.5141
    14.7085

          k = 0.0000 0.4753 0.1490     band energies (ev):

    -5.3778  -2.5809   2.2941   5.1786   6.2769  10.1371  10.8707  11.7908
    13.9298

          k = 0.5488 0.0000-0.2483     band energies (ev):

    -4.8451  -2.4349   2.3684   2.8251   4.5939   8.9644  13.3622  14.9442
    15.4118

          k = 0.0000 0.0000 0.4470     band energies (ev):

    -6.3206  -0.6785   4.7995   4.7995   5.6032   8.3760   8.3760   9.7402
    15.4908

          k = 0.4116 0.7129 0.1490     band energies (ev):

    -5.4212  -1.5632   1.7238   3.8274   5.8397   9.5509  10.0356  12.4635
    15.5944

     the Fermi energy is     7.8920 ev

     total energy              =     -25.48262218 Ry
     Harris-Foulkes estimate   =     -25.48262563 Ry
     estimated scf accuracy    <       0.00000652 Ry

     iteration #  6     ecut=    25.00 Ry     beta=0.70
     Davidson diagonalization with overlap
     ethr =  6.52E-08,  avg # of iterations =  2.5

     total cpu time spent up to now is        4.8 secs

          k = 0.0000 0.0000 0.1490     band energies (ev):

    -7.3948   2.1415   4.8146   4.8146   6.7366   9.2820  10.1567  10.1567
    14.5877

          k =-0.1372-0.2376 0.2483     band energies (ev):

    -6.4253  -0.9941   4.2050   4.6922   7.4554   8.4356   9.6024  11.6657
    13.8031

          k = 0.2744 0.4753-0.0497     band energies (ev):

    -5.0412  -3.3996   3.9125   4.8912   6.1718   8.9985  10.4176  11.5752
    15.8403

          k = 0.1372 0.2376 0.0497     band energies (ev):

    -6.8433  -0.1801   3.9909   5.5439   6.9370   9.3861  10.0534  11.7995
    13.7047

          k =-0.2744 0.0000 0.3477     band energies (ev):

    -6.0754  -0.4996   2.6584   3.3357   5.8636   9.0451  11.4145  11.7457
    14.3728

          k = 0.1372 0.7129 0.0497     band energies (ev):

    -4.5938  -2.8746   1.6096   3.1161   6.3911   9.5737  11.7635  13.5192
    14.7121

          k = 0.0000 0.4753 0.1490     band energies (ev):

    -5.3716  -2.5743   2.2989   5.1806   6.2809  10.1408  10.8764  11.7938
    13.9318

          k = 0.5488 0.0000-0.2483     band energies (ev):

    -4.8385  -2.4279   2.3698   2.8303   4.5961   8.9679  13.3673  14.9495
    15.4156

          k = 0.0000 0.0000 0.4470     band energies (ev):

    -6.3138  -0.6757   4.8061   4.8061   5.6095   8.3791   8.3791   9.7418
    15.4921

          k = 0.4116 0.7129 0.1490     band energies (ev):

    -5.4138  -1.5588   1.7270   3.8332   5.8424   9.5564  10.0396  12.4688
    15.5951

     the Fermi energy is     7.8958 ev

     total energy              =     -25.48262557 Ry
     Harris-Foulkes estimate   =     -25.48262569 Ry
     estimated scf accuracy    <       0.00000043 Ry

     iteration #  7     ecut=    25.00 Ry     beta=0.70
     Davidson diagonalization with overlap
     ethr =  4.28E-09,  avg # of iterations =  1.8

     total cpu time spent up to now is        4.9 secs

     End of self-consistent calculation

          k = 0.0000 0.0000 0.1490 (   531 PWs)   bands (ev):

    -7.3958   2.1406   4.8134   4.8134   6.7360   9.2815  10.1558  10.1558
    14.5877

          k =-0.1372-0.2376 0.2483 (   522 PWs)   bands (ev):

    -6.4264  -0.9951   4.2045   4.6909   7.4546   8.4354   9.6020  11.6648
    13.8031

          k = 0.2744 0.4753-0.0497 (   520 PWs)   bands (ev):

    -5.0424  -3.4006   3.9113   4.8909   6.1714   8.9979  10.4173  11.5749
    15.8398

          k = 0.1372 0.2376 0.0497 (   525 PWs)   bands (ev):

    -6.8443  -0.1813   3.9898   5.5434   6.9367   9.3852  10.0528  11.7987
    13.7045

          k =-0.2744 0.0000 0.3477 (   519 PWs)   bands (ev):

    -6.0766  -0.5006   2.6579   3.3347   5.8636   9.0443  11.4135  11.7447
    14.3729

          k = 0.1372 0.7129 0.0497 (   510 PWs)   bands (ev):

    -4.5951  -2.8757   1.6091   3.1159   6.3907   9.5728  11.7629  13.5183
    14.7116

          k = 0.0000 0.4753 0.1490 (   521 PWs)   bands (ev):

    -5.3727  -2.5755   2.2980   5.1805   6.2804  10.1402  10.8754  11.7933
    13.9317

          k = 0.5488 0.0000-0.2483 (   510 PWs)   bands (ev):

    -4.8397  -2.4292   2.3699   2.8293   4.5960   8.9673  13.3663  14.9486
    15.4152

          k = 0.0000 0.0000 0.4470 (   522 PWs)   bands (ev):

    -6.3150  -0.6759   4.8048   4.8048   5.6084   8.3786   8.3786   9.7421
    15.4921

          k = 0.4116 0.7129 0.1490 (   520 PWs)   bands (ev):

    -5.4152  -1.5594   1.7265   3.8321   5.8421   9.5555  10.0389  12.4680
    15.5952

     the Fermi energy is     7.8950 ev

!    total energy              =     -25.48262558 Ry
     Harris-Foulkes estimate   =     -25.48262562 Ry
     estimated scf accuracy    <       0.00000009 Ry

     convergence has been achieved in   7 iterations

     Forces acting on atoms (Ry/au):

     atom    1 type  1   force =    -0.00000000    0.00000000   -0.06498863
     atom    2 type  1   force =     0.00000000   -0.00000000    0.06498863

     Total force =     0.091908     Total SCF correction =     0.000170


     entering subroutine stress ...

          total   stress  (Ry/bohr**3)                   (kbar)     P=   33.16
   0.00014879   0.00000000  -0.00000000         21.89      0.00     -0.00
   0.00000000   0.00014879  -0.00000000          0.00     21.89     -0.00
  -0.00000000  -0.00000000   0.00037870         -0.00     -0.00     55.71


     Entering Dynamics;  it =     3   time =  0.01452 pico-seconds

  new lattice vectors (alat unit) :
   0.607374912  -0.000000000   0.860066153
  -0.303687265   0.526002054   0.860066163
  -0.303687265  -0.526002054   0.860066163
  new unit-cell volume =    283.9971 (a.u.)^3
  new positions in cryst coord
As       0.280297018   0.280297013   0.280297013
As      -0.280297018  -0.280297013  -0.280297013
  new positions in cart coord (alat unit)
As       0.000000110   0.000000000   0.723221931
As      -0.000000110  -0.000000000  -0.723221931

     Ekin =     0.04390944 Ry    T = 1123.7 K  Etot =   -25.43871614
     new unit-cell volume =    283.99707 a.u.^3 (    42.08402 Ang^3 )

CELL_PARAMETERS (alat=  7.01033623)
   0.607374912  -0.000000000   0.860066153
  -0.303687265   0.526002054   0.860066163
  -0.303687265  -0.526002054   0.860066163

ATOMIC_POSITIONS (crystal)
As       0.280297018   0.280297013   0.280297013
As      -0.280297018  -0.280297013  -0.280297013



     Writing output data file pwscf.save
     NEW-OLD atomic charge density approx. for the potential
     NEW k-points:
        k(    1) = (   0.0000000   0.0000000   0.1453377), wk =   0.0625000
        k(    2) = (  -0.1372025  -0.2376417   0.2422294), wk =   0.1875000
        k(    3) = (   0.2744050   0.4752833  -0.0484459), wk =   0.1875000
        k(    4) = (   0.1372025   0.2376417   0.0484459), wk =   0.1875000
        k(    5) = (  -0.2744050   0.0000000   0.3391212), wk =   0.1875000
        k(    6) = (   0.1372025   0.7129250   0.0484459), wk =   0.3750000
        k(    7) = (   0.0000000   0.4752833   0.1453377), wk =   0.3750000
        k(    8) = (   0.5488100   0.0000000  -0.2422295), wk =   0.1875000
        k(    9) = (   0.0000000   0.0000000   0.4360130), wk =   0.0625000
        k(   10) = (   0.4116075   0.7129250   0.1453376), wk =   0.1875000
     extrapolated charge   10.24593, renormalised to   10.00000

     total cpu time spent up to now is        5.6 secs

     per-process dynamical memory:    11.1 Mb

     Self-consistent Calculation

     iteration #  1     ecut=    25.00 Ry     beta=0.70
     Davidson diagonalization with overlap
     ethr =  1.00E-06,  avg # of iterations =  5.1

     total cpu time spent up to now is        5.8 secs

          k = 0.0000 0.0000 0.1453     band energies (ev):

    -7.4205   1.5969   4.8322   4.8322   6.3223   9.0423   9.9030   9.9030
    14.1295

          k =-0.1372-0.2376 0.2422     band energies (ev):

    -6.4572  -1.2081   3.8142   4.7495   7.2800   7.9703   9.0520  11.3962
    13.2605

          k = 0.2744 0.4753-0.0484     band energies (ev):

    -5.0544  -3.5339   3.9444   4.4582   5.8433   8.6701   9.7508  10.6666
    15.4576

          k = 0.1372 0.2376 0.0484     band energies (ev):

    -6.8681  -0.3613   4.0012   5.1338   6.4732   9.2483   9.4258  11.2520
    13.1877

          k =-0.2744 0.0000 0.3391     band energies (ev):

    -6.1159  -0.8259   2.4702   3.3575   5.3605   9.0643  11.1660  11.4350
    13.6725

          k = 0.1372 0.7129 0.0484     band energies (ev):

    -4.6439  -2.9845   1.4955   2.7486   5.9619   9.3468  11.5977  13.0710
    13.9509

          k = 0.0000 0.4753 0.1453     band energies (ev):

    -5.4064  -2.6821   2.2434   4.7360   5.8452   9.5204  10.5800  11.4255
    13.3260

          k = 0.5488 0.0000-0.2422     band energies (ev):

    -4.9012  -2.4934   1.9267   2.8493   4.1383   8.8654  12.7513  14.2969
    14.6563

          k = 0.0000 0.0000 0.4360     band energies (ev):

    -6.3466  -1.2691   4.8878   4.8878   5.7265   8.0832   8.0832   9.2485
    15.0418

          k = 0.4116 0.7129 0.1453     band energies (ev):

    -5.4410  -1.9693   1.6274   3.8698   5.5538   9.4143   9.6777  12.2605
    14.9631

     the Fermi energy is     7.6358 ev

     total energy              =     -25.49247914 Ry
     Harris-Foulkes estimate   =     -25.62954990 Ry
     estimated scf accuracy    <       0.00037073 Ry

     iteration #  2     ecut=    25.00 Ry     beta=0.70
     Davidson diagonalization with overlap
     ethr =  3.71E-06,  avg # of iterations =  3.0

     total cpu time spent up to now is        6.0 secs

          k = 0.0000 0.0000 0.1453     band energies (ev):

    -7.4689   1.5072   4.7683   4.7683   6.3008   9.0082   9.8868   9.8869
    14.2062

          k =-0.1372-0.2376 0.2422     band energies (ev):

    -6.5126  -1.2778   3.8059   4.6845   7.2724   7.9400   9.0525  11.3645
    13.3327

          k = 0.2744 0.4753-0.0484     band energies (ev):

    -5.1203  -3.5899   3.8957   4.4557   5.8495   8.6479   9.7526  10.6647
    15.5213

          k = 0.1372 0.2376 0.0484     band energies (ev):

    -6.9176  -0.4498   3.9537   5.1114   6.4534   9.2299   9.4123  11.2208
    13.2643

          k =-0.2744 0.0000 0.3391     band energies (ev):

    -6.1783  -0.9051   2.4703   3.3241   5.3792   9.0694  11.1196  11.3929
    13.7183

          k = 0.1372 0.7129 0.0484     band energies (ev):

    -4.7214  -3.0549   1.5102   2.7622   5.9407   9.3213  11.6305  13.0203
    13.9464

          k = 0.0000 0.4753 0.1453     band energies (ev):

    -5.4653  -2.7589   2.2355   4.7478   5.8116   9.5239  10.5361  11.4272
    13.3688

          k = 0.5488 0.0000-0.2422     band energies (ev):

    -4.9734  -2.5731   1.9543   2.8207   4.1520   8.9055  12.6958  14.2829
    14.6046

          k = 0.0000 0.0000 0.4360     band energies (ev):

    -6.4146  -1.2954   4.8263   4.8263   5.6994   8.0869   8.0869   9.2454
    15.1451

          k = 0.4116 0.7129 0.1453     band energies (ev):

    -5.5208  -2.0159   1.6399   3.8300   5.5712   9.3618   9.6526  12.2124
    15.0511

     the Fermi energy is     7.8827 ev

     total energy              =     -25.49293772 Ry
     Harris-Foulkes estimate   =     -25.49302298 Ry
     estimated scf accuracy    <       0.00020598 Ry

     iteration #  3     ecut=    25.00 Ry     beta=0.70
     Davidson diagonalization with overlap
     ethr =  2.06E-06,  avg # of iterations =  1.0

     total cpu time spent up to now is        6.1 secs

          k = 0.0000 0.0000 0.1453     band energies (ev):

    -7.4497   1.5240   4.7899   4.7899   6.3151   9.0233   9.9025   9.9025
    14.2070

          k =-0.1372-0.2376 0.2422     band energies (ev):

    -6.4923  -1.2594   3.8170   4.7081   7.2898   7.9477   9.0599  11.3823
    13.3365

          k = 0.2744 0.4753-0.0484     band energies (ev):

    -5.0987  -3.5715   3.9169   4.4644   5.8595   8.6616   9.7591  10.6735
    15.5272

          k = 0.1372 0.2376 0.0484     band energies (ev):

    -6.8985  -0.4278   3.9737   5.1236   6.4625   9.2487   9.4239  11.2347
    13.2683

          k =-0.2744 0.0000 0.3391     band energies (ev):

    -6.1567  -0.8870   2.4832   3.3418   5.3834   9.0856  11.1381  11.4100
    13.7203

          k = 0.1372 0.7129 0.0484     band energies (ev):

    -4.6980  -3.0347   1.5215   2.7695   5.9504   9.3372  11.6427  13.0377
    13.9560

          k = 0.0000 0.4753 0.1453     band energies (ev):

    -5.4450  -2.7374   2.2517   4.7525   5.8237   9.5335  10.5557  11.4396
    13.3743

          k = 0.5488 0.0000-0.2422     band energies (ev):

    -4.9515  -2.5495   1.9575   2.8381   4.1583   8.9176  12.7115  14.2951
    14.6192

          k = 0.0000 0.0000 0.4360     band energies (ev):

    -6.3914  -1.2882   4.8484   4.8484   5.7220   8.0973   8.0973   9.2480
    15.1506

          k = 0.4116 0.7129 0.1453     band energies (ev):

    -5.4956  -2.0043   1.6515   3.8493   5.5794   9.3800   9.6652  12.2306
    15.0533

     the Fermi energy is     7.8904 ev

     total energy              =     -25.49293129 Ry
     Harris-Foulkes estimate   =     -25.49294816 Ry
     estimated scf accuracy    <       0.00003613 Ry

     iteration #  4     ecut=    25.00 Ry     beta=0.70
     Davidson diagonalization with overlap
     ethr =  3.61E-07,  avg # of iterations =  1.5

     total cpu time spent up to now is        6.3 secs

          k = 0.0000 0.0000 0.1453     band energies (ev):

    -7.4391   1.5362   4.8015   4.8015   6.3232   9.0320   9.9112   9.9112
    14.2084

          k =-0.1372-0.2376 0.2422     band energies (ev):

    -6.4812  -1.2480   3.8241   4.7203   7.2983   7.9552   9.0660  11.3920
    13.3391

          k = 0.2744 0.4753-0.0484     band energies (ev):

    -5.0868  -3.5606   3.9279   4.4708   5.8662   8.6699   9.7650  10.6802
    15.5304

          k = 0.1372 0.2376 0.0484     band energies (ev):

    -6.8878  -0.4148   3.9843   5.1317   6.4697   9.2577   9.4318  11.2437
    13.2706

          k =-0.2744 0.0000 0.3391     band energies (ev):

    -6.1450  -0.8751   2.4903   3.3514   5.3883   9.0931  11.1486  11.4201
    13.7239

          k = 0.1372 0.7129 0.0484     band energies (ev):

    -4.6853  -3.0229   1.5279   2.7750   5.9579   9.3461  11.6487  13.0481
    13.9631

          k = 0.0000 0.4753 0.1453     band energies (ev):

    -5.4337  -2.7250   2.2601   4.7575   5.8321   9.5401  10.5663  11.4468
    13.3785

          k = 0.5488 0.0000-0.2422     band energies (ev):

    -4.9393  -2.5366   1.9618   2.8474   4.1636   8.9231  12.7219  14.3033
    14.6291

          k = 0.0000 0.0000 0.4360     band energies (ev):

    -6.3791  -1.2807   4.8600   4.8600   5.7318   8.1040   8.1040   9.2538
    15.1532

          k = 0.4116 0.7129 0.1453     band energies (ev):

    -5.4825  -1.9950   1.6578   3.8595   5.5851   9.3904   9.6736  12.2410
    15.0556

     the Fermi energy is     7.8979 ev

     total energy              =     -25.49293373 Ry
     Harris-Foulkes estimate   =     -25.49293478 Ry
     estimated scf accuracy    <       0.00000196 Ry

     iteration #  5     ecut=    25.00 Ry     beta=0.70
     Davidson diagonalization with overlap
     ethr =  1.96E-08,  avg # of iterations =  3.0

     total cpu time spent up to now is        6.5 secs

          k = 0.0000 0.0000 0.1453     band energies (ev):

    -7.4356   1.5398   4.8053   4.8053   6.3259   9.0348   9.9141   9.9141
    14.2088

          k =-0.1372-0.2376 0.2422     band energies (ev):

    -6.4776  -1.2444   3.8263   4.7243   7.3012   7.9573   9.0678  11.3952
    13.3400

          k = 0.2744 0.4753-0.0484     band energies (ev):

    -5.0830  -3.5572   3.9315   4.4727   5.8682   8.6726   9.7667  10.6822
    15.5315

          k = 0.1372 0.2376 0.0484     band energies (ev):

    -6.8843  -0.4107   3.9878   5.1343   6.4718   9.2607   9.4342  11.2464
    13.2714

          k =-0.2744 0.0000 0.3391     band energies (ev):

    -6.1412  -0.8715   2.4926   3.3546   5.3896   9.0956  11.1520  11.4233
    13.7249

          k = 0.1372 0.7129 0.0484     band energies (ev):

    -4.6811  -3.0191   1.5300   2.7767   5.9601   9.3490  11.6508  13.0514
    13.9652

          k = 0.0000 0.4753 0.1453     band energies (ev):

    -5.4301  -2.7211   2.2629   4.7589   5.8347   9.5422  10.5698  11.4491
    13.3797

          k = 0.5488 0.0000-0.2422     band energies (ev):

    -4.9354  -2.5324   1.9630   2.8504   4.1652   8.9250  12.7251  14.3058
    14.6322

          k = 0.0000 0.0000 0.4360     band energies (ev):

    -6.3751  -1.2787   4.8638   4.8638   5.7353   8.1061   8.1061   9.2553
    15.1542

          k = 0.4116 0.7129 0.1453     band energies (ev):

    -5.4781  -1.9923   1.6599   3.8628   5.5869   9.3938   9.6762  12.2443
    15.0563

     the Fermi energy is     7.9001 ev

     total energy              =     -25.49293517 Ry
     Harris-Foulkes estimate   =     -25.49293520 Ry
     estimated scf accuracy    <       0.00000020 Ry

     iteration #  6     ecut=    25.00 Ry     beta=0.70
     Davidson diagonalization with overlap
     ethr =  2.00E-09,  avg # of iterations =  1.0

     total cpu time spent up to now is        6.6 secs

          k = 0.0000 0.0000 0.1453     band energies (ev):

    -7.4358   1.5396   4.8051   4.8051   6.3258   9.0347   9.9139   9.9139
    14.2088

          k =-0.1372-0.2376 0.2422     band energies (ev):

    -6.4777  -1.2446   3.8262   4.7240   7.3011   7.9572   9.0678  11.3950
    13.3400

          k = 0.2744 0.4753-0.0484     band energies (ev):

    -5.0832  -3.5574   3.9313   4.4727   5.8682   8.6724   9.7666  10.6821
    15.5314

          k = 0.1372 0.2376 0.0484     band energies (ev):

    -6.8845  -0.4109   3.9876   5.1342   6.4717   9.2606   9.4340  11.2463
    13.2713

          k =-0.2744 0.0000 0.3391     band energies (ev):

    -6.1414  -0.8716   2.4925   3.3544   5.3896   9.0955  11.1519  11.4231
    13.7249

          k = 0.1372 0.7129 0.0484     band energies (ev):

    -4.6814  -3.0193   1.5299   2.7766   5.9600   9.3488  11.6507  13.0512
    13.9652

          k = 0.0000 0.4753 0.1453     band energies (ev):

    -5.4303  -2.7213   2.2628   4.7589   5.8346   9.5421  10.5696  11.4489
    13.3797

          k = 0.5488 0.0000-0.2422     band energies (ev):

    -4.9356  -2.5326   1.9629   2.8503   4.1652   8.9249  12.7249  14.3057
    14.6320

          k = 0.0000 0.0000 0.4360     band energies (ev):

    -6.3753  -1.2787   4.8636   4.8636   5.7351   8.1060   8.1060   9.2553
    15.1542

          k = 0.4116 0.7129 0.1453     band energies (ev):

    -5.4784  -1.9925   1.6598   3.8626   5.5868   9.3936   9.6761  12.2441
    15.0563

     the Fermi energy is     7.9000 ev

     total energy              =     -25.49293511 Ry
     Harris-Foulkes estimate   =     -25.49293517 Ry
     estimated scf accuracy    <       0.00000012 Ry

     iteration #  7     ecut=    25.00 Ry     beta=0.70
     Davidson diagonalization with overlap
     ethr =  1.16E-09,  avg # of iterations =  1.5

     total cpu time spent up to now is        6.7 secs

     End of self-consistent calculation

          k = 0.0000 0.0000 0.1453 (   531 PWs)   bands (ev):

    -7.4364   1.5390   4.8044   4.8044   6.3253   9.0342   9.9134   9.9134
    14.2088

          k =-0.1372-0.2376 0.2422 (   522 PWs)   bands (ev):

    -6.4784  -1.2452   3.8259   4.7233   7.3006   7.9569   9.0674  11.3944
    13.3399

          k = 0.2744 0.4753-0.0484 (   520 PWs)   bands (ev):

    -5.0839  -3.5580   3.9306   4.4724   5.8679   8.6720   9.7664  10.6818
    15.5313

          k = 0.1372 0.2376 0.0484 (   525 PWs)   bands (ev):

    -6.8851  -0.4117   3.9870   5.1337   6.4714   9.2600   9.4336  11.2458
    13.2712

          k =-0.2744 0.0000 0.3391 (   519 PWs)   bands (ev):

    -6.1421  -0.8723   2.4922   3.3538   5.3895   9.0951  11.1513  11.4225
    13.7248

          k = 0.1372 0.7129 0.0484 (   510 PWs)   bands (ev):

    -4.6821  -3.0200   1.5295   2.7764   5.9597   9.3483  11.6504  13.0506
    13.9648

          k = 0.0000 0.4753 0.1453 (   521 PWs)   bands (ev):

    -5.4309  -2.7220   2.2623   4.7587   5.8342   9.5417  10.5690  11.4485
    13.3795

          k = 0.5488 0.0000-0.2422 (   510 PWs)   bands (ev):

    -4.9363  -2.5334   1.9628   2.8497   4.1649   8.9246  12.7243  14.3053
    14.6315

          k = 0.0000 0.0000 0.4360 (   522 PWs)   bands (ev):

    -6.3760  -1.2791   4.8629   4.8629   5.7345   8.1056   8.1056   9.2551
    15.1541

          k = 0.4116 0.7129 0.1453 (   520 PWs)   bands (ev):

    -5.4792  -1.9929   1.6594   3.8620   5.5866   9.3931   9.6756  12.2435
    15.0562

     the Fermi energy is     7.8997 ev

!    total energy              =     -25.49293512 Ry
     Harris-Foulkes estimate   =     -25.49293512 Ry
     estimated scf accuracy    <          1.0E-09 Ry

     convergence has been achieved in   7 iterations

     Forces acting on atoms (Ry/au):

     atom    1 type  1   force =    -0.00000000    0.00000000   -0.03788597
     atom    2 type  1   force =     0.00000000    0.00000000    0.03788597

     Total force =     0.053579     Total SCF correction =     0.000014


     entering subroutine stress ...

          total   stress  (Ry/bohr**3)                   (kbar)     P=   -1.09
  -0.00009202   0.00000000   0.00000000        -13.54      0.00      0.00
  -0.00000000  -0.00009202   0.00000000         -0.00    -13.54      0.00
   0.00000000   0.00000000   0.00016184          0.00      0.00     23.81


     Entering Dynamics;  it =     4   time =  0.02178 pico-seconds

  new lattice vectors (alat unit) :
   0.607123074  -0.000000000   0.884742996
  -0.303561345   0.525783955   0.884743009
  -0.303561345  -0.525783955   0.884743009
  new unit-cell volume =    291.9032 (a.u.)^3
  new positions in cryst coord
As       0.275314588   0.275314580   0.275314580
As      -0.275314588  -0.275314580  -0.275314580
  new positions in cart coord (alat unit)
As       0.000000110  -0.000000000   0.730747954
As      -0.000000110   0.000000000  -0.730747954

     Ekin =     0.03174617 Ry    T = 1120.4 K  Etot =   -25.46118895
     new unit-cell volume =    291.90324 a.u.^3 (    43.25560 Ang^3 )

CELL_PARAMETERS (alat=  7.01033623)
   0.607123074  -0.000000000   0.884742996
  -0.303561345   0.525783955   0.884743009
  -0.303561345  -0.525783955   0.884743009

ATOMIC_POSITIONS (crystal)
As       0.275314588   0.275314580   0.275314580
As      -0.275314588  -0.275314580  -0.275314580



     Writing output data file pwscf.save
     NEW-OLD atomic charge density approx. for the potential
     NEW k-points:
        k(    1) = (   0.0000000   0.0000000   0.1412840), wk =   0.0625000
        k(    2) = (  -0.1372594  -0.2377402   0.2354733), wk =   0.1875000
        k(    3) = (   0.2745188   0.4754805  -0.0470947), wk =   0.1875000
        k(    4) = (   0.1372594   0.2377402   0.0470946), wk =   0.1875000
        k(    5) = (  -0.2745188   0.0000000   0.3296626), wk =   0.1875000
        k(    6) = (   0.1372594   0.7132207   0.0470946), wk =   0.3750000
        k(    7) = (   0.0000000   0.4754805   0.1412840), wk =   0.3750000
        k(    8) = (   0.5490376   0.0000000  -0.2354734), wk =   0.1875000
        k(    9) = (   0.0000000   0.0000000   0.4238519), wk =   0.0625000
        k(   10) = (   0.4117782   0.7132207   0.1412839), wk =   0.1875000
     extrapolated charge   10.27084, renormalised to   10.00000

     total cpu time spent up to now is        7.4 secs

     per-process dynamical memory:    11.1 Mb

     Self-consistent Calculation

     iteration #  1     ecut=    25.00 Ry     beta=0.70
     Davidson diagonalization with overlap
     ethr =  1.00E-06,  avg # of iterations =  5.3

     total cpu time spent up to now is        7.6 secs

          k = 0.0000 0.0000 0.1413     band energies (ev):

    -7.4502   0.9453   4.8445   4.8445   5.8139   8.8984   9.6269   9.6269
    13.7404

          k =-0.1373-0.2377 0.2355     band energies (ev):

    -6.4972  -1.5019   3.4480   4.8255   7.1069   7.4646   8.4572  10.9373
    12.9591

          k = 0.2745 0.4755-0.0471     band energies (ev):

    -5.0834  -3.7010   3.9960   4.0200   5.5087   8.3355   9.0551   9.7170
    14.7964

          k = 0.1373 0.2377 0.0471     band energies (ev):

    -6.8998  -0.6192   4.0206   4.6925   5.9971   8.6956   9.1661  10.6354
    12.6782

          k =-0.2745 0.0000 0.3297     band energies (ev):

    -6.1661  -1.2674   2.3641   3.3938   4.8395   9.1433  10.8484  11.0693
    12.9734

          k = 0.1373 0.7132 0.0471     band energies (ev):

    -4.7141  -3.1525   1.4029   2.4103   5.5280   9.0253  11.4768  12.6055
    13.1567

          k = 0.0000 0.4755 0.1413     band energies (ev):

    -5.4579  -2.8331   2.2193   4.2804   5.3988   8.7640  10.1806  11.1394
    12.8312

          k = 0.5490 0.0000-0.2355     band energies (ev):

    -4.9889  -2.6043   1.5062   2.8875   3.6688   8.8452  12.0508  13.4694
    13.8447

          k = 0.0000 0.0000 0.4239     band energies (ev):

    -6.3825  -1.9172   4.9767   4.9767   5.8530   7.7839   7.7839   8.7438
    14.6577

          k = 0.4118 0.7132 0.1413     band energies (ev):

    -5.4713  -2.4770   1.5916   3.9207   5.2594   9.2512   9.2743  12.0256
    14.3704

     the Fermi energy is     7.1641 ev

     total energy              =     -25.49641352 Ry
     Harris-Foulkes estimate   =     -25.64584331 Ry
     estimated scf accuracy    <       0.00052269 Ry

     iteration #  2     ecut=    25.00 Ry     beta=0.70
     Davidson diagonalization with overlap
     ethr =  5.23E-06,  avg # of iterations =  3.0

     total cpu time spent up to now is        7.8 secs

          k = 0.0000 0.0000 0.1413     band energies (ev):

    -7.5043   0.8395   4.7777   4.7777   5.7796   8.8589   9.6007   9.6007
    13.8264

          k =-0.1373-0.2377 0.2355     band energies (ev):

    -6.5588  -1.5857   3.4378   4.7580   7.0978   7.4190   8.4503  10.8951
    13.0419

          k = 0.2745 0.4755-0.0471     band energies (ev):

    -5.1576  -3.7666   3.9468   4.0129   5.5055   8.3085   9.0473   9.7081
    14.8896

          k = 0.1373 0.2377 0.0471     band energies (ev):

    -6.9557  -0.7223   3.9716   4.6661   5.9631   8.6745   9.1535  10.5975
    12.7705

          k =-0.2745 0.0000 0.3297     band energies (ev):

    -6.2347  -1.3576   2.3583   3.3593   4.8486   9.1549  10.7847  11.0150
    13.0159

          k = 0.1373 0.7132 0.0471     band energies (ev):

    -4.7999  -3.2340   1.4198   2.4211   5.4973   8.9913  11.4993  12.5425
    13.1630

          k = 0.0000 0.4755 0.1413     band energies (ev):

    -5.5246  -2.9210   2.2134   4.2863   5.3571   8.7660  10.1296  11.1136
    12.8939

          k = 0.5490 0.0000-0.2355     band energies (ev):

    -5.0697  -2.6959   1.5317   2.8585   3.6726   8.8979  11.9853  13.4745
    13.7554

          k = 0.0000 0.0000 0.4239     band energies (ev):

    -6.4559  -1.9592   4.9124   4.9124   5.8233   7.7795   7.7795   8.7236
    14.7667

          k = 0.4118 0.7132 0.1413     band energies (ev):

    -5.5582  -2.5335   1.6002   3.8808   5.2678   9.1898   9.2370  11.9617
    14.4660

     the Fermi energy is     7.1551 ev

     total energy              =     -25.49700736 Ry
     Harris-Foulkes estimate   =     -25.49711073 Ry
     estimated scf accuracy    <       0.00024126 Ry

     iteration #  3     ecut=    25.00 Ry     beta=0.70
     Davidson diagonalization with overlap
     ethr =  2.41E-06,  avg # of iterations =  1.0

     total cpu time spent up to now is        8.0 secs

          k = 0.0000 0.0000 0.1413     band energies (ev):

    -7.4828   0.8588   4.8011   4.8011   5.7949   8.8788   9.6186   9.6186
    13.8274

          k =-0.1373-0.2377 0.2355     band energies (ev):

    -6.5361  -1.5652   3.4508   4.7843   7.1177   7.4282   8.4582  10.9138
    13.0478

          k = 0.2745 0.4755-0.0471     band energies (ev):

    -5.1332  -3.7462   3.9702   4.0232   5.5170   8.3246   9.0551   9.7184
    14.8922

          k = 0.1373 0.2377 0.0471     band energies (ev):

    -6.9343  -0.6978   3.9933   4.6797   5.9749   8.6873   9.1745  10.6126
    12.7728

          k =-0.2745 0.0000 0.3297     band energies (ev):

    -6.2106  -1.3382   2.3748   3.3786   4.8532   9.1735  10.8060  11.0344
    13.0185

          k = 0.1373 0.7132 0.0471     band energies (ev):

    -4.7736  -3.2117   1.4317   2.4302   5.5091   9.0086  11.5145  12.5634
    13.1721

          k = 0.0000 0.4755 0.1413     band energies (ev):

    -5.5019  -2.8969   2.2313   4.2919   5.3715   8.7758  10.1501  11.1314
    12.8998

          k = 0.5490 0.0000-0.2355     band energies (ev):

    -5.0453  -2.6694   1.5359   2.8774   3.6803   8.9116  12.0029  13.4830
    13.7761

          k = 0.0000 0.0000 0.4239     band energies (ev):

    -6.4297  -1.9503   4.9367   4.9367   5.8493   7.7914   7.7914   8.7275
    14.7733

          k = 0.4118 0.7132 0.1413     band energies (ev):

    -5.5295  -2.5214   1.6145   3.9018   5.2771   9.2109   9.2516  11.9832
    14.4686

     the Fermi energy is     7.1750 ev

     total energy              =     -25.49700593 Ry
     Harris-Foulkes estimate   =     -25.49702173 Ry
     estimated scf accuracy    <       0.00003565 Ry

     iteration #  4     ecut=    25.00 Ry     beta=0.70
     Davidson diagonalization with overlap
     ethr =  3.57E-07,  avg # of iterations =  1.3

     total cpu time spent up to now is        8.1 secs

          k = 0.0000 0.0000 0.1413     band energies (ev):

    -7.4729   0.8710   4.8115   4.8116   5.8031   8.8874   9.6271   9.6271
    13.8289

          k =-0.1373-0.2377 0.2355     band energies (ev):

    -6.5257  -1.5540   3.4577   4.7951   7.1256   7.4364   8.4646  10.9230
    13.0505

          k = 0.2745 0.4755-0.0471     band energies (ev):

    -5.1222  -3.7358   3.9799   4.0298   5.5238   8.3328   9.0615   9.7253
    14.8939

          k = 0.1373 0.2377 0.0471     band energies (ev):

    -6.9243  -0.6853   4.0029   4.6875   5.9827   8.6950   9.1824  10.6212
    12.7745

          k =-0.2745 0.0000 0.3297     band energies (ev):

    -6.1998  -1.3268   2.3818   3.3873   4.8587   9.1801  10.8164  11.0442
    13.0227

          k = 0.1373 0.7132 0.0471     band energies (ev):

    -4.7618  -3.2005   1.4376   2.4358   5.5169   9.0171  11.5208  12.5737
    13.1782

          k = 0.0000 0.4755 0.1413     band energies (ev):

    -5.4913  -2.8852   2.2387   4.2974   5.3800   8.7821  10.1599  11.1397
    12.9032

          k = 0.5490 0.0000-0.2355     band energies (ev):

    -5.0339  -2.6572   1.5406   2.8858   3.6862   8.9161  12.0130  13.4894
    13.7876

          k = 0.0000 0.0000 0.4239     band energies (ev):

    -6.4185  -1.9421   4.9472   4.9472   5.8582   7.7981   7.7981   8.7345
    14.7758

          k = 0.4118 0.7132 0.1413     band energies (ev):

    -5.5175  -2.5122   1.6206   3.9108   5.2832   9.2209   9.2600  11.9936
    14.4709

     the Fermi energy is     7.1829 ev

     total energy              =     -25.49700777 Ry
     Harris-Foulkes estimate   =     -25.49700919 Ry
     estimated scf accuracy    <       0.00000264 Ry

     iteration #  5     ecut=    25.00 Ry     beta=0.70
     Davidson diagonalization with overlap
     ethr =  2.64E-08,  avg # of iterations =  3.0

     total cpu time spent up to now is        8.3 secs

          k = 0.0000 0.0000 0.1413     band energies (ev):

    -7.4689   0.8754   4.8158   4.8158   5.8062   8.8909   9.6305   9.6305
    13.8293

          k =-0.1373-0.2377 0.2355     band energies (ev):

    -6.5215  -1.5498   3.4604   4.7997   7.1290   7.4391   8.4667  10.9266
    13.0516

          k = 0.2745 0.4755-0.0471     band energies (ev):

    -5.1177  -3.7318   3.9840   4.0321   5.5263   8.3360   9.0636   9.7277
    14.8945

          k = 0.1373 0.2377 0.0471     band energies (ev):

    -6.9203  -0.6804   4.0068   4.6904   5.9855   8.6978   9.1859  10.6244
    12.7751

          k =-0.2745 0.0000 0.3297     band energies (ev):

    -6.1954  -1.3226   2.3848   3.3908   4.8604   9.1832  10.8205  11.0480
    13.0239

          k = 0.1373 0.7132 0.0471     band energies (ev):

    -4.7570  -3.1961   1.4399   2.4379   5.5196   9.0205  11.5235  12.5778
    13.1804

          k = 0.0000 0.4755 0.1413     band energies (ev):

    -5.4871  -2.8806   2.2419   4.2991   5.3831   8.7844  10.1638  11.1430
    12.9045

          k = 0.5490 0.0000-0.2355     band energies (ev):

    -5.0293  -2.6523   1.5420   2.8892   3.6882   8.9183  12.0168  13.4916
    13.7919

          k = 0.0000 0.0000 0.4239     band energies (ev):

    -6.4138  -1.9395   4.9515   4.9515   5.8624   7.8006   7.8006   8.7365
    14.7770

          k = 0.4118 0.7132 0.1413     band energies (ev):

    -5.5124  -2.5091   1.6232   3.9146   5.2853   9.2249   9.2631  11.9978
    14.4717

     the Fermi energy is     7.1863 ev

     total energy              =     -25.49700950 Ry
     Harris-Foulkes estimate   =     -25.49700956 Ry
     estimated scf accuracy    <       0.00000028 Ry

     iteration #  6     ecut=    25.00 Ry     beta=0.70
     Davidson diagonalization with overlap
     ethr =  2.83E-09,  avg # of iterations =  1.0

     total cpu time spent up to now is        8.4 secs

          k = 0.0000 0.0000 0.1413     band energies (ev):

    -7.4692   0.8750   4.8155   4.8155   5.8060   8.8907   9.6302   9.6302
    13.8293

          k =-0.1373-0.2377 0.2355     band energies (ev):

    -6.5218  -1.5501   3.4602   4.7994   7.1288   7.4389   8.4665  10.9264
    13.0515

          k = 0.2745 0.4755-0.0471     band energies (ev):

    -5.1180  -3.7321   3.9837   4.0320   5.5261   8.3358   9.0634   9.7276
    14.8945

          k = 0.1373 0.2377 0.0471     band energies (ev):

    -6.9205  -0.6808   4.0065   4.6902   5.9853   8.6976   9.1857  10.6242
    12.7751

          k =-0.2745 0.0000 0.3297     band energies (ev):

    -6.1957  -1.3229   2.3846   3.3906   4.8603   9.1830  10.8202  11.0478
    13.0239

          k = 0.1373 0.7132 0.0471     band energies (ev):

    -4.7573  -3.1964   1.4397   2.4377   5.5194   9.0202  11.5233  12.5775
    13.1802

          k = 0.0000 0.4755 0.1413     band energies (ev):

    -5.4874  -2.8809   2.2417   4.2990   5.3829   8.7842  10.1635  11.1428
    12.9045

          k = 0.5490 0.0000-0.2355     band energies (ev):

    -5.0296  -2.6527   1.5419   2.8889   3.6881   8.9182  12.0165  13.4914
    13.7916

          k = 0.0000 0.0000 0.4239     band energies (ev):

    -6.4142  -1.9396   4.9512   4.9512   5.8621   7.8005   7.8005   8.7364
    14.7770

          k = 0.4118 0.7132 0.1413     band energies (ev):

    -5.5128  -2.5093   1.6230   3.9143   5.2852   9.2247   9.2629  11.9975
    14.4716

     the Fermi energy is     7.1861 ev

     total energy              =     -25.49700943 Ry
     Harris-Foulkes estimate   =     -25.49700950 Ry
     estimated scf accuracy    <       0.00000014 Ry

     iteration #  7     ecut=    25.00 Ry     beta=0.70
     Davidson diagonalization with overlap
     ethr =  1.45E-09,  avg # of iterations =  2.0

     total cpu time spent up to now is        8.5 secs

     End of self-consistent calculation

          k = 0.0000 0.0000 0.1413 (   531 PWs)   bands (ev):

    -7.4699   0.8743   4.8147   4.8147   5.8055   8.8901   9.6296   9.6296
    13.8293

          k =-0.1373-0.2377 0.2355 (   522 PWs)   bands (ev):

    -6.5225  -1.5509   3.4598   4.7985   7.1282   7.4385   8.4662  10.9257
    13.0514

          k = 0.2745 0.4755-0.0471 (   520 PWs)   bands (ev):

    -5.1188  -3.7328   3.9830   4.0316   5.5257   8.3352   9.0631   9.7272
    14.8945

          k = 0.1373 0.2377 0.0471 (   525 PWs)   bands (ev):

    -6.9212  -0.6817   4.0058   4.6898   5.9849   8.6971   9.1851  10.6236
    12.7751

          k =-0.2745 0.0000 0.3297 (   519 PWs)   bands (ev):

    -6.1965  -1.3236   2.3841   3.3899   4.8601   9.1825  10.8195  11.0470
    13.0238

          k = 0.1373 0.7132 0.0471 (   510 PWs)   bands (ev):

    -4.7582  -3.1972   1.4394   2.4374   5.5190   9.0197  11.5229  12.5768
    13.1799

          k = 0.0000 0.4755 0.1413 (   521 PWs)   bands (ev):

    -5.4881  -2.8817   2.2411   4.2988   5.3824   8.7839  10.1628  11.1422
    12.9043

          k = 0.5490 0.0000-0.2355 (   510 PWs)   bands (ev):

    -5.0304  -2.6536   1.5417   2.8883   3.6878   8.9178  12.0158  13.4911
    13.7909

          k = 0.0000 0.0000 0.4239 (   522 PWs)   bands (ev):

    -6.4150  -1.9400   4.9504   4.9504   5.8614   7.8000   7.8000   8.7362
    14.7769

          k = 0.4118 0.7132 0.1413 (   520 PWs)   bands (ev):

    -5.5137  -2.5099   1.6226   3.9136   5.2849   9.2240   9.2623  11.9967
    14.4716

     the Fermi energy is     7.1855 ev

!    total energy              =     -25.49700944 Ry
     Harris-Foulkes estimate   =     -25.49700944 Ry
     estimated scf accuracy    <          3.5E-10 Ry

     convergence has been achieved in   7 iterations

     Forces acting on atoms (Ry/au):

     atom    1 type  1   force =    -0.00000000    0.00000000   -0.00454391
     atom    2 type  1   force =     0.00000000    0.00000000    0.00454391

     Total force =     0.006426     Total SCF correction =     0.000004


     entering subroutine stress ...

          total   stress  (Ry/bohr**3)                   (kbar)     P=  -35.67
  -0.00029481  -0.00000000   0.00000000        -43.37     -0.00      0.00
   0.00000000  -0.00029481   0.00000000          0.00    -43.37      0.00
   0.00000000   0.00000000  -0.00013783          0.00      0.00    -20.28


     Entering Dynamics;  it =     5   time =  0.02904 pico-seconds

  new lattice vectors (alat unit) :
   0.605258154  -0.000000000   0.910001269
  -0.302628884   0.524168887   0.910001285
  -0.302628884  -0.524168887   0.910001285
[...]

    -6.0890  -0.8454   3.9988   5.6976   8.0632   8.3144   9.0512  11.8952
    13.9451

          k = 0.2808 0.4863-0.0479 (   520 PWs)   bands (ev):

    -4.5609  -3.1882   4.5934   4.7733   6.2495   9.3285   9.6598  10.4235
    15.6468

          k = 0.1404 0.2431 0.0479 (   525 PWs)   bands (ev):

    -6.5323   0.1932   4.7531   5.3233   6.7148   9.4253  10.2533  11.4767
    13.4687

          k =-0.2808 0.0000 0.3351 (   519 PWs)   bands (ev):

    -5.7166  -0.6137   2.9808   4.0632   5.3394  10.2179  11.9725  12.0613
    13.7667

          k = 0.1404 0.7294 0.0479 (   510 PWs)   bands (ev):

    -4.1349  -2.5573   1.8758   2.8685   6.2078   9.9276  12.5216  13.7374
    14.0333

          k = 0.0000 0.4863 0.1436 (   521 PWs)   bands (ev):

    -4.9902  -2.1835   2.8288   4.7928   6.1220   9.4135  11.1852  12.2188
    13.7235

          k = 0.5615-0.0000-0.2394 (   510 PWs)   bands (ev):

    -4.4578  -1.8925   1.8711   3.5296   4.1478   9.8122  12.9800  14.3103
    14.9484

          k = 0.0000 0.0000 0.4309 (   522 PWs)   bands (ev):

    -5.9111  -1.5508   5.8082   5.8082   7.0263   8.5041   8.5041   9.6260
    15.7309

          k = 0.4211 0.7294 0.1436 (   520 PWs)   bands (ev):

    -4.8954  -2.0696   2.1344   4.6487   5.9539  10.0688  10.4072  13.2107
    15.2408

     the Fermi energy is     8.2571 ev

!    total energy              =     -25.49951459 Ry
     Harris-Foulkes estimate   =     -25.49951461 Ry
     estimated scf accuracy    <       0.00000001 Ry

     convergence has been achieved in   2 iterations

     Forces acting on atoms (Ry/au):

     atom    1 type  1   force =     0.00000000    0.00000000    0.00057892
     atom    2 type  1   force =    -0.00000000    0.00000000   -0.00057892

     Total force =     0.000819     Total SCF correction =     0.000140
     SCF correction compared to forces is large: reduce conv_thr to get better values


     entering subroutine stress ...

          total   stress  (Ry/bohr**3)                   (kbar)     P=    0.07
  -0.00000059   0.00000000   0.00000000         -0.09      0.00      0.00
  -0.00000000  -0.00000059   0.00000000         -0.00     -0.09      0.00
   0.00000000   0.00000000   0.00000264          0.00      0.00      0.39


     Entering Dynamics;  it =    16   time =  0.10890 pico-seconds

  new lattice vectors (alat unit) :
   0.593635002  -0.000000000   0.870323279
  -0.296817306   0.514102943   0.870323284
  -0.296817306  -0.514102943   0.870323284
  new unit-cell volume =    274.5288 (a.u.)^3
  new positions in cryst coord
As       0.272166667   0.272166658   0.272166658
As      -0.272166667  -0.272166658  -0.272166658
  new positions in cart coord (alat unit)
As       0.000000112   0.000000000   0.710618945
As      -0.000000112  -0.000000000  -0.710618945

     Ekin =     0.00000402 Ry    T =  350.9 K  Etot =   -25.49951057
     new unit-cell volume =    274.52879 a.u.^3 (    40.68097 Ang^3 )

CELL_PARAMETERS (alat=  7.01033623)
   0.593635002  -0.000000000   0.870323279
  -0.296817306   0.514102943   0.870323284
  -0.296817306  -0.514102943   0.870323284

ATOMIC_POSITIONS (crystal)
As       0.272166667   0.272166658   0.272166658
As      -0.272166667  -0.272166658  -0.272166658



     Writing output data file pwscf.save
     NEW-OLD atomic charge density approx. for the potential
     NEW k-points:
        k(    1) = (   0.0000000  -0.0000000   0.1436248), wk =   0.0625000
        k(    2) = (  -0.1403781  -0.2431420   0.2393747), wk =   0.1875000
        k(    3) = (   0.2807562   0.4862839  -0.0478750), wk =   0.1875000
        k(    4) = (   0.1403781   0.2431420   0.0478749), wk =   0.1875000
        k(    5) = (  -0.2807562   0.0000000   0.3351246), wk =   0.1875000
        k(    6) = (   0.1403781   0.7294259   0.0478749), wk =   0.3750000
        k(    7) = (   0.0000000   0.4862839   0.1436248), wk =   0.3750000
        k(    8) = (   0.5615124  -0.0000000  -0.2393747), wk =   0.1875000
        k(    9) = (   0.0000000   0.0000000   0.4308744), wk =   0.0625000
        k(   10) = (   0.4211343   0.7294259   0.1436247), wk =   0.1875000
     extrapolated charge   10.00025, renormalised to   10.00000

     total cpu time spent up to now is       25.1 secs

     per-process dynamical memory:    11.1 Mb

     Self-consistent Calculation

     iteration #  1     ecut=    25.00 Ry     beta=0.70
     Davidson diagonalization with overlap
     ethr =  1.00E-06,  avg # of iterations =  1.6

     Threshold (ethr) on eigenvalues was too large:
     Diagonalizing with lowered threshold

     Davidson diagonalization with overlap
     ethr =  1.90E-09,  avg # of iterations =  3.6

     total cpu time spent up to now is       25.4 secs

     End of self-consistent calculation

          k = 0.0000-0.0000 0.1436 (   531 PWs)   bands (ev):

    -7.1129   1.7762   5.6287   5.6287   6.5388  10.0034  10.5622  10.5622
    14.5358

          k =-0.1404-0.2431 0.2394 (   522 PWs)   bands (ev):

    -6.0911  -0.8453   3.9975   5.6926   8.0626   8.3145   9.0557  11.8957
    13.9431

          k = 0.2808 0.4863-0.0479 (   520 PWs)   bands (ev):

    -4.5631  -3.1888   4.5926   4.7694   6.2500   9.3266   9.6638  10.4257
    15.6472

          k = 0.1404 0.2431 0.0479 (   525 PWs)   bands (ev):

    -6.5339   0.1922   4.7506   5.3233   6.7132   9.4287  10.2487  11.4781
    13.4710

          k =-0.2808 0.0000 0.3351 (   519 PWs)   bands (ev):

    -5.7190  -0.6129   2.9779   4.0614   5.3424  10.2133  11.9723  12.0611
    13.7711

          k = 0.1404 0.7294 0.0479 (   510 PWs)   bands (ev):

    -4.1377  -2.5580   1.8750   2.8685   6.2076   9.9289  12.5193  13.7359
    14.0350

          k = 0.0000 0.4863 0.1436 (   521 PWs)   bands (ev):

    -4.9919  -2.1848   2.8261   4.7945   6.1198   9.4171  11.1857  12.2164
    13.7234

          k = 0.5615-0.0000-0.2394 (   510 PWs)   bands (ev):

    -4.4597  -1.8953   1.8732   3.5276   4.1492   9.8075  12.9815  14.3152
    14.9496

          k = 0.0000 0.0000 0.4309 (   522 PWs)   bands (ev):

    -5.9144  -1.5479   5.8049   5.8049   7.0235   8.5057   8.5057   9.6279
    15.7297

          k = 0.4211 0.7294 0.1436 (   520 PWs)   bands (ev):

    -4.8996  -2.0665   2.1324   4.6460   5.9553  10.0707  10.4051  13.2086
    15.2423

     the Fermi energy is     8.2571 ev

!    total energy              =     -25.49951561 Ry
     Harris-Foulkes estimate   =     -25.49966178 Ry
     estimated scf accuracy    <       0.00000009 Ry

     convergence has been achieved in   1 iterations

     Forces acting on atoms (Ry/au):

     atom    1 type  1   force =     0.00000000    0.00000000    0.00022751
     atom    2 type  1   force =    -0.00000000   -0.00000000   -0.00022751

     Total force =     0.000322     Total SCF correction =     0.000295
     SCF correction compared to forces is large: reduce conv_thr to get better values


     entering subroutine stress ...

          total   stress  (Ry/bohr**3)                   (kbar)     P=    0.33
   0.00000171  -0.00000000  -0.00000000          0.25     -0.00     -0.00
   0.00000000   0.00000171   0.00000000          0.00      0.25      0.00
  -0.00000000   0.00000000   0.00000327         -0.00      0.00      0.48


     Entering Dynamics;  it =    17   time =  0.11616 pico-seconds

  new lattice vectors (alat unit) :
   0.593644704  -0.000000000   0.870420182
  -0.296822157   0.514111345   0.870420188
  -0.296822157  -0.514111345   0.870420188
  new unit-cell volume =    274.5683 (a.u.)^3
  new positions in cryst coord
As       0.272237535   0.272237526   0.272237526
As      -0.272237535  -0.272237526  -0.272237526
  new positions in cart coord (alat unit)
As       0.000000112   0.000000000   0.710883122
As      -0.000000112  -0.000000000  -0.710883122

     Ekin =     0.00000505 Ry    T =  329.0 K  Etot =   -25.49951056
     new unit-cell volume =    274.56833 a.u.^3 (    40.68683 Ang^3 )

CELL_PARAMETERS (alat=  7.01033623)
   0.593644704  -0.000000000   0.870420182
  -0.296822157   0.514111345   0.870420188
  -0.296822157  -0.514111345   0.870420188

ATOMIC_POSITIONS (crystal)
As       0.272237535   0.272237526   0.272237526
As      -0.272237535  -0.272237526  -0.272237526



     Writing output data file pwscf.save
     NEW-OLD atomic charge density approx. for the potential
     NEW k-points:
        k(    1) = (   0.0000000  -0.0000000   0.1436088), wk =   0.0625000
        k(    2) = (  -0.1403758  -0.2431380   0.2393480), wk =   0.1875000
        k(    3) = (   0.2807516   0.4862760  -0.0478696), wk =   0.1875000
        k(    4) = (   0.1403758   0.2431380   0.0478696), wk =   0.1875000
        k(    5) = (  -0.2807516   0.0000000   0.3350872), wk =   0.1875000
        k(    6) = (   0.1403758   0.7294140   0.0478696), wk =   0.3750000
        k(    7) = (   0.0000000   0.4862760   0.1436088), wk =   0.3750000
        k(    8) = (   0.5615032  -0.0000000  -0.2393481), wk =   0.1875000
        k(    9) = (   0.0000000   0.0000000   0.4308264), wk =   0.0625000
        k(   10) = (   0.4211274   0.7294140   0.1436087), wk =   0.1875000
     extrapolated charge   10.00144, renormalised to   10.00000

     total cpu time spent up to now is       26.0 secs

     per-process dynamical memory:    11.1 Mb

     Self-consistent Calculation

     iteration #  1     ecut=    25.00 Ry     beta=0.70
     Davidson diagonalization with overlap
     ethr =  1.00E-06,  avg # of iterations =  1.8

     Threshold (ethr) on eigenvalues was too large:
     Diagonalizing with lowered threshold

     Davidson diagonalization with overlap
     ethr =  1.76E-10,  avg # of iterations =  4.0

     total cpu time spent up to now is       26.3 secs

     End of self-consistent calculation

          k = 0.0000-0.0000 0.1436 (   531 PWs)   bands (ev):

    -7.1156   1.7761   5.6244   5.6244   6.5381   9.9957  10.5588  10.5588
    14.5362

          k =-0.1404-0.2431 0.2393 (   522 PWs)   bands (ev):

    -6.0942  -0.8462   3.9950   5.6853   8.0598   8.3134   9.0596  11.8942
    13.9388

          k = 0.2808 0.4863-0.0479 (   520 PWs)   bands (ev):

    -4.5667  -3.1905   4.5908   4.7633   6.2492   9.3226   9.6671  10.4266
    15.6456

          k = 0.1404 0.2431 0.0479 (   525 PWs)   bands (ev):

    -6.5364   0.1896   4.7462   5.3222   6.7106   9.4307  10.2411  11.4780
    13.4717

          k =-0.2808 0.0000 0.3351 (   519 PWs)   bands (ev):

    -5.7227  -0.6130   2.9732   4.0580   5.3452  10.2058  11.9696  12.0590
    13.7746

          k = 0.1404 0.7294 0.0479 (   510 PWs)   bands (ev):

    -4.1421  -2.5598   1.8732   2.8677   6.2064   9.9283  12.5144  13.7321
    14.0351

          k = 0.0000 0.4863 0.1436 (   521 PWs)   bands (ev):

    -4.9948  -2.1877   2.8216   4.7958   6.1163   9.4195  11.1841  12.2115
    13.7215

          k = 0.5615-0.0000-0.2393 (   510 PWs)   bands (ev):

    -4.4630  -1.8999   1.8751   3.5241   4.1499   9.8002  12.9813  14.3186
    14.9487

          k = 0.0000 0.0000 0.4308 (   522 PWs)   bands (ev):

    -5.9193  -1.5449   5.7995   5.7995   7.0172   8.5061   8.5061   9.6292
    15.7258

          k = 0.4211 0.7294 0.1436 (   520 PWs)   bands (ev):

    -4.9057  -2.0635   2.1290   4.6415   5.9555  10.0711  10.4006  13.2041
    15.2419

     the Fermi energy is     8.2561 ev

!    total energy              =     -25.49951591 Ry
     Harris-Foulkes estimate   =     -25.50035788 Ry
     estimated scf accuracy    <       0.00000001 Ry

     convergence has been achieved in   1 iterations

     Forces acting on atoms (Ry/au):

     atom    1 type  1   force =    -0.00000000    0.00000000   -0.00014054
     atom    2 type  1   force =     0.00000000   -0.00000000    0.00014054

     Total force =     0.000199     Total SCF correction =     0.000035
     SCF correction compared to forces is large: reduce conv_thr to get better values


     entering subroutine stress ...

          total   stress  (Ry/bohr**3)                   (kbar)     P=    0.41
   0.00000194  -0.00000000  -0.00000000          0.28     -0.00     -0.00
   0.00000000   0.00000194   0.00000000          0.00      0.28      0.00
  -0.00000000  -0.00000000   0.00000449         -0.00     -0.00      0.66


     Entering Dynamics;  it =    18   time =  0.12342 pico-seconds

  new lattice vectors (alat unit) :
   0.593659483  -0.000000000   0.870567646
  -0.296829546   0.514124144   0.870567651
  -0.296829546  -0.514124144   0.870567651
  new unit-cell volume =    274.6285 (a.u.)^3
  new positions in cryst coord
As       0.272235154   0.272235145   0.272235145
As      -0.272235154  -0.272235145  -0.272235145
  new positions in cart coord (alat unit)
As       0.000000112   0.000000000   0.710997339
As      -0.000000112   0.000000000  -0.710997339

     Ekin =     0.00000529 Ry    T =  309.7 K  Etot =   -25.49951063
     new unit-cell volume =    274.62852 a.u.^3 (    40.69575 Ang^3 )

CELL_PARAMETERS (alat=  7.01033623)
   0.593659483  -0.000000000   0.870567646
  -0.296829546   0.514124144   0.870567651
  -0.296829546  -0.514124144   0.870567651

ATOMIC_POSITIONS (crystal)
As       0.272235154   0.272235145   0.272235145
As      -0.272235154  -0.272235145  -0.272235145



     Writing output data file pwscf.save
     NEW-OLD atomic charge density approx. for the potential
     NEW k-points:
        k(    1) = (   0.0000000  -0.0000000   0.1435845), wk =   0.0625000
        k(    2) = (  -0.1403723  -0.2431319   0.2393075), wk =   0.1875000
        k(    3) = (   0.2807446   0.4862639  -0.0478615), wk =   0.1875000
        k(    4) = (   0.1403723   0.2431319   0.0478615), wk =   0.1875000
        k(    5) = (  -0.2807446   0.0000000   0.3350305), wk =   0.1875000
        k(    6) = (   0.1403723   0.7293958   0.0478615), wk =   0.3750000
        k(    7) = (   0.0000000   0.4862639   0.1435845), wk =   0.3750000
        k(    8) = (   0.5614892  -0.0000000  -0.2393075), wk =   0.1875000
        k(    9) = (   0.0000000   0.0000000   0.4307534), wk =   0.0625000
        k(   10) = (   0.4211169   0.7293958   0.1435844), wk =   0.1875000
     extrapolated charge   10.00219, renormalised to   10.00000

     total cpu time spent up to now is       26.9 secs

     per-process dynamical memory:    11.1 Mb

     Self-consistent Calculation

     iteration #  1     ecut=    25.00 Ry     beta=0.70
     Davidson diagonalization with overlap
     ethr =  1.00E-06,  avg # of iterations =  1.0

     Threshold (ethr) on eigenvalues was too large:
     Diagonalizing with lowered threshold

     Davidson diagonalization with overlap
     ethr =  1.98E-10,  avg # of iterations =  3.4

     total cpu time spent up to now is       27.2 secs

     End of self-consistent calculation

          k = 0.0000-0.0000 0.1436 (   531 PWs)   bands (ev):

    -7.1166   1.7721   5.6229   5.6229   6.5346   9.9927  10.5558  10.5558
    14.5337

          k =-0.1404-0.2431 0.2393 (   522 PWs)   bands (ev):

    -6.0954  -0.8486   3.9924   5.6835   8.0573   8.3099   9.0569  11.8901
    13.9362

          k = 0.2807 0.4863-0.0479 (   520 PWs)   bands (ev):

    -4.5680  -3.1921   4.5877   4.7617   6.2465   9.3192   9.6639  10.4217
    15.6406

          k = 0.1404 0.2431 0.0479 (   525 PWs)   bands (ev):

    -6.5374   0.1870   4.7448   5.3190   6.7072   9.4267  10.2382  11.4742
    13.4682

          k =-0.2807 0.0000 0.3350 (   519 PWs)   bands (ev):

    -5.7241  -0.6159   2.9715   4.0569   5.3425  10.2036  11.9662  12.0557
    13.7711

          k = 0.1404 0.7294 0.0479 (   510 PWs)   bands (ev):

    -4.1437  -2.5617   1.8718   2.8655   6.2034   9.9254  12.5118  13.7278
    14.0308

          k = 0.0000 0.4863 0.1436 (   521 PWs)   bands (ev):

    -4.9960  -2.1895   2.8200   4.7932   6.1128   9.4156  11.1803  12.2083
    13.7182

          k = 0.5615-0.0000-0.2393 (   510 PWs)   bands (ev):

    -4.4645  -1.9020   1.8730   3.5230   4.1472   9.7977  12.9771  14.3143
    14.9436

          k = 0.0000 0.0000 0.4308 (   522 PWs)   bands (ev):

    -5.9208  -1.5477   5.7981   5.7981   7.0153   8.5039   8.5039   9.6260
    15.7219

          k = 0.4211 0.7294 0.1436 (   520 PWs)   bands (ev):

    -4.9074  -2.0659   2.1277   4.6402   5.9533  10.0685  10.3976  13.2007
    15.2380

     the Fermi energy is     8.2525 ev

!    total energy              =     -25.49951614 Ry
     Harris-Foulkes estimate   =     -25.50079726 Ry
     estimated scf accuracy    <          9.4E-09 Ry

     convergence has been achieved in   1 iterations

     Forces acting on atoms (Ry/au):

     atom    1 type  1   force =    -0.00000000    0.00000000   -0.00007118
     atom    2 type  1   force =     0.00000000   -0.00000000    0.00007118

     Total force =     0.000101     Total SCF correction =     0.000189
     SCF correction compared to forces is large: reduce conv_thr to get better values


     entering subroutine stress ...

          total   stress  (Ry/bohr**3)                   (kbar)     P=    0.09
   0.00000030  -0.00000000  -0.00000000          0.04     -0.00     -0.00
   0.00000000   0.00000030  -0.00000000          0.00      0.04     -0.00
  -0.00000000  -0.00000000   0.00000129         -0.00     -0.00      0.19


     Wentzcovitch Damped Dynamics: convergence achieved, Efinal=   -25.49951614

------------------------------------------------------------------------

     Final estimate of lattice vectors (input alat units)
   0.593659483  -0.000000000   0.870567646
  -0.296829546   0.514124144   0.870567651
  -0.296829546  -0.514124144   0.870567651
  final unit-cell volume =    274.6285 (a.u.)^3
  input alat =       7.0103 (a.u.)
Begin final coordinates
     new unit-cell volume =    274.62852 a.u.^3 (    40.69575 Ang^3 )

CELL_PARAMETERS (alat=  7.01033623)
   0.593659483  -0.000000000   0.870567646
  -0.296829546   0.514124144   0.870567651
  -0.296829546  -0.514124144   0.870567651

ATOMIC_POSITIONS (crystal)
As       0.272235154   0.272235145   0.272235145
As      -0.272235154  -0.272235145  -0.272235145
End final coordinates



     Writing output data file pwscf.save

     init_run     :      0.16s CPU      0.25s WALL (       1 calls)
     electrons    :     13.08s CPU     15.12s WALL (      19 calls)
     update_pot   :      2.20s CPU      2.64s WALL (      18 calls)
     forces       :      0.80s CPU      0.80s WALL (      19 calls)
     stress       :      2.24s CPU      2.25s WALL (      19 calls)

     Called by init_run:
     wfcinit      :      0.04s CPU      0.11s WALL (       1 calls)
     potinit      :      0.04s CPU      0.04s WALL (       1 calls)

     Called by electrons:
     c_bands      :     10.94s CPU     11.08s WALL (      96 calls)
     sum_band     :      1.76s CPU      1.79s WALL (      96 calls)
     v_of_rho     :      0.18s CPU      0.18s WALL (     109 calls)
     mix_rho      :      0.04s CPU      0.04s WALL (      96 calls)

     Called by c_bands:
     init_us_2    :      0.27s CPU      0.28s WALL (    2310 calls)
     cegterg      :     10.72s CPU     10.87s WALL (     960 calls)

     Called by *egterg:
     h_psi        :      8.92s CPU      9.04s WALL (    3145 calls)
     g_psi        :      0.09s CPU      0.09s WALL (    2175 calls)
     cdiaghg      :      0.50s CPU      0.55s WALL (    2895 calls)

     Called by h_psi:
     add_vuspsi   :      0.16s CPU      0.16s WALL (    3145 calls)

     General routines
     calbec       :      0.17s CPU      0.19s WALL (    3525 calls)
     fft          :      0.11s CPU      0.12s WALL (     542 calls)
     fftw         :      8.92s CPU      9.03s WALL (   55054 calls)
     davcio       :      0.04s CPU      0.04s WALL (    3270 calls)

     Parallel routines
     fft_scatter  :      0.53s CPU      0.58s WALL (   55596 calls)

     PWSCF        :    19.65s CPU        27.75s WALL


   This run was terminated on:  16:49:38   7Oct2013            

=------------------------------------------------------------------------------=
   JOB DONE.
=------------------------------------------------------------------------------=

