
     Program PWSCF v.5.1.1 starts on 18Sep2015 at 15:58:54 

     This program is part of the open-source Quantum ESPRESSO suite
     for quantum simulation of materials; please cite
         "P. Giannozzi et al., J. Phys.:Condens. Matter 21 395502 (2009);
          URL http://www.quantum-espresso.org", 
     in publications or presentations arising from this work. More details at
     http://www.quantum-espresso.org/quote

     Parallel version (MPI), running on    48 processors
     R & G space division:  proc/nbgrp/npool/nimage =      48
     Waiting for input...
     Reading input from standard input
Warning: card &IONS ignored
Warning: card / ignored
Warning: card &CELL ignored
Warning: card / ignored

     Current dimensions of program PWSCF are:
     Max number of different atomic species (ntypx) = 10
     Max number of k-points (npk) =  40000
     Max angular momentum in pseudopotentials (lmaxx) =  3
               file Mo.rel-pbesol-spn-rrkjus_psl.0.3.0.UPF: wavefunction(s)  4S renormalized

     Subspace diagonalization in iterative solution of the eigenvalue problem:
     a serial algorithm will be used

 
     Parallelization info
     --------------------
     sticks:   dense  smooth     PW     G-vecs:    dense   smooth      PW
     Min          50      13      4                12806     1675     288
     Max          51      14      5                12847     1724     311
     Sum        2407     637    199               615267    81721   14335
 


     bravais-lattice index     =           14
     lattice parameter (alat)  =       5.9340  a.u.
     unit-cell volume          =    1152.5310 (a.u.)^3
     number of atoms/cell      =            3
     number of atomic types    =            2
     number of electrons       =        26.00
     number of Kohn-Sham states=           34
     kinetic-energy cutoff     =      65.0000  Ry
     charge density cutoff     =    1000.0000  Ry
     convergence threshold     =      1.0E-10
     mixing beta               =       0.7000
     number of iterations used =            8  plain     mixing
     Exchange-correlation      = PBESOL ( 1  4 10  8 0 0)
     Non magnetic calculation with spin-orbit


     celldm(1)=   5.933987  celldm(2)=   1.000000  celldm(3)=   6.369161
     celldm(4)=   0.000000  celldm(5)=   0.000000  celldm(6)=   0.500000

     crystal axes: (cart. coord. in units of alat)
               a(1) = (   1.000000   0.000000   0.000000 )  
               a(2) = (   0.500000   0.866025   0.000000 )  
               a(3) = (   0.000000   0.000000   6.369161 )  

     reciprocal axes: (cart. coord. in units 2 pi/alat)
               b(1) = (  1.000000 -0.577350  0.000000 )  
               b(2) = (  0.000000  1.154701  0.000000 )  
               b(3) = (  0.000000  0.000000  0.157007 )  


     PseudoPot. # 1 for Mo read from file:
     ../Mo.rel-pbesol-spn-rrkjus_psl.0.3.0.UPF
     MD5 check sum: f74c186b6684bdea8823954e92cd7c49
     Pseudo is Ultrasoft + core correction, Zval = 14.0
     Generated using "atomic" code by A. Dal Corso  v.5.0.99 svn rev. 10869
     Using radial grid of 1229 points, 10 beta functions with: 
                l(1) =   0
                l(2) =   0
                l(3) =   1
                l(4) =   1
                l(5) =   1
                l(6) =   1
                l(7) =   2
                l(8) =   2
                l(9) =   2
               l(10) =   2
     Q(r) pseudized with 0 coefficients 


     PseudoPot. # 2 for  S read from file:
     ../S.rel-pbesol-n-rrkjus_psl.0.1.UPF
     MD5 check sum: 1c7f1cb74247985bb4b47b03851e150a
     Pseudo is Ultrasoft + core correction, Zval =  6.0
     Generated using "atomic" code by A. Dal Corso  v.5.0.99 svn rev. 10869
     Using radial grid of 1151 points,  6 beta functions with: 
                l(1) =   0
                l(2) =   0
                l(3) =   1
                l(4) =   1
                l(5) =   1
                l(6) =   1
     Q(r) pseudized with 0 coefficients 


     atomic species   valence    mass     pseudopotential
        Mo            14.00     1.00000     Mo( 1.00)
        S              6.00     1.00000      S( 1.00)

     No symmetry found


                                    s                        frac. trans.

      isym =  1     identity                                     

 cryst.   s( 1) = (     1          0          0      )
                  (     0          1          0      )
                  (     0          0          1      )

 cart.    s( 1) = (  1.0000000  0.0000000  0.0000000 )
                  (  0.0000000  1.0000000  0.0000000 )
                  (  0.0000000  0.0000000  1.0000000 )


     double point group C_1 (1)    
     there are  2 classes and  1 irreducible representations
     the character table:

       E     -E   
                  
G_2    1.00 -1.00

     the symmetry operations in each class:
     E             1
     -E           -1

   Cartesian axes

     site n.     atom                  positions (alat units)
         1           Mo  tau(   1) = (   0.5000000   0.2886751   3.1845805  )
         2           S   tau(   2) = (   1.0000000   0.5773503   3.6807544  )
         3           S   tau(   3) = (   1.0000000   0.5773503   2.6884066  )

   Crystallographic axes

     site n.     atom                  positions (cryst. coord.)
         1           Mo  tau(   1) = (  0.3333333  0.3333333  0.5000000  )
         2           S   tau(   2) = (  0.6666667  0.6666667  0.5779026  )
         3           S   tau(   3) = (  0.6666667  0.6666667  0.4220974  )

     number of k points=   100  gaussian smearing, width (Ry)=  0.0010
                       cart. coord. in units 2pi/alat
        k(    1) = (   0.0000000   0.0000000   0.0000000), wk =   0.0100000
        k(    2) = (   0.0000000   0.1154701   0.0000000), wk =   0.0100000
        k(    3) = (   0.0000000   0.2309401   0.0000000), wk =   0.0100000
        k(    4) = (   0.0000000   0.3464102   0.0000000), wk =   0.0100000
        k(    5) = (   0.0000000   0.4618802   0.0000000), wk =   0.0100000
        k(    6) = (   0.0000000  -0.5773503   0.0000000), wk =   0.0100000
        k(    7) = (   0.0000000  -0.4618802   0.0000000), wk =   0.0100000
        k(    8) = (   0.0000000  -0.3464102   0.0000000), wk =   0.0100000
        k(    9) = (   0.0000000  -0.2309401   0.0000000), wk =   0.0100000
        k(   10) = (   0.0000000  -0.1154701   0.0000000), wk =   0.0100000
        k(   11) = (   0.1000000  -0.0577350   0.0000000), wk =   0.0100000
        k(   12) = (   0.1000000   0.0577350   0.0000000), wk =   0.0100000
        k(   13) = (   0.1000000   0.1732051   0.0000000), wk =   0.0100000
        k(   14) = (   0.1000000   0.2886751   0.0000000), wk =   0.0100000
        k(   15) = (   0.1000000   0.4041452   0.0000000), wk =   0.0100000
        k(   16) = (   0.1000000  -0.6350853   0.0000000), wk =   0.0100000
        k(   17) = (   0.1000000  -0.5196152   0.0000000), wk =   0.0100000
        k(   18) = (   0.1000000  -0.4041452   0.0000000), wk =   0.0100000
        k(   19) = (   0.1000000  -0.2886751   0.0000000), wk =   0.0100000
        k(   20) = (   0.1000000  -0.1732051   0.0000000), wk =   0.0100000
        k(   21) = (   0.2000000  -0.1154701   0.0000000), wk =   0.0100000
        k(   22) = (   0.2000000   0.0000000   0.0000000), wk =   0.0100000
        k(   23) = (   0.2000000   0.1154701   0.0000000), wk =   0.0100000
        k(   24) = (   0.2000000   0.2309401   0.0000000), wk =   0.0100000
        k(   25) = (   0.2000000   0.3464102   0.0000000), wk =   0.0100000
        k(   26) = (   0.2000000  -0.6928203   0.0000000), wk =   0.0100000
        k(   27) = (   0.2000000  -0.5773503   0.0000000), wk =   0.0100000
        k(   28) = (   0.2000000  -0.4618802   0.0000000), wk =   0.0100000
        k(   29) = (   0.2000000  -0.3464102   0.0000000), wk =   0.0100000
        k(   30) = (   0.2000000  -0.2309401   0.0000000), wk =   0.0100000
        k(   31) = (   0.3000000  -0.1732051   0.0000000), wk =   0.0100000
        k(   32) = (   0.3000000  -0.0577350   0.0000000), wk =   0.0100000
        k(   33) = (   0.3000000   0.0577350   0.0000000), wk =   0.0100000
        k(   34) = (   0.3000000   0.1732051   0.0000000), wk =   0.0100000
        k(   35) = (   0.3000000   0.2886751   0.0000000), wk =   0.0100000
        k(   36) = (   0.3000000  -0.7505553   0.0000000), wk =   0.0100000
        k(   37) = (   0.3000000  -0.6350853   0.0000000), wk =   0.0100000
        k(   38) = (   0.3000000  -0.5196152   0.0000000), wk =   0.0100000
        k(   39) = (   0.3000000  -0.4041452   0.0000000), wk =   0.0100000
        k(   40) = (   0.3000000  -0.2886751   0.0000000), wk =   0.0100000
        k(   41) = (   0.4000000  -0.2309401   0.0000000), wk =   0.0100000
        k(   42) = (   0.4000000  -0.1154701   0.0000000), wk =   0.0100000
        k(   43) = (   0.4000000   0.0000000   0.0000000), wk =   0.0100000
        k(   44) = (   0.4000000   0.1154701   0.0000000), wk =   0.0100000
        k(   45) = (   0.4000000   0.2309401   0.0000000), wk =   0.0100000
        k(   46) = (   0.4000000  -0.8082904   0.0000000), wk =   0.0100000
        k(   47) = (   0.4000000  -0.6928203   0.0000000), wk =   0.0100000
        k(   48) = (   0.4000000  -0.5773503   0.0000000), wk =   0.0100000
        k(   49) = (   0.4000000  -0.4618802   0.0000000), wk =   0.0100000
        k(   50) = (   0.4000000  -0.3464102   0.0000000), wk =   0.0100000
        k(   51) = (  -0.5000000   0.2886751   0.0000000), wk =   0.0100000
        k(   52) = (  -0.5000000   0.4041452   0.0000000), wk =   0.0100000
        k(   53) = (  -0.5000000   0.5196152   0.0000000), wk =   0.0100000
        k(   54) = (  -0.5000000   0.6350853   0.0000000), wk =   0.0100000
        k(   55) = (  -0.5000000   0.7505553   0.0000000), wk =   0.0100000
        k(   56) = (  -0.5000000  -0.2886751   0.0000000), wk =   0.0100000
        k(   57) = (  -0.5000000  -0.1732051   0.0000000), wk =   0.0100000
        k(   58) = (  -0.5000000  -0.0577350   0.0000000), wk =   0.0100000
        k(   59) = (  -0.5000000   0.0577350   0.0000000), wk =   0.0100000
        k(   60) = (  -0.5000000   0.1732051   0.0000000), wk =   0.0100000
        k(   61) = (  -0.4000000   0.2309401   0.0000000), wk =   0.0100000
        k(   62) = (  -0.4000000   0.3464102   0.0000000), wk =   0.0100000
        k(   63) = (  -0.4000000   0.4618802   0.0000000), wk =   0.0100000
        k(   64) = (  -0.4000000   0.5773503   0.0000000), wk =   0.0100000
        k(   65) = (  -0.4000000   0.6928203   0.0000000), wk =   0.0100000
        k(   66) = (  -0.4000000  -0.3464102   0.0000000), wk =   0.0100000
        k(   67) = (  -0.4000000  -0.2309401   0.0000000), wk =   0.0100000
        k(   68) = (  -0.4000000  -0.1154701   0.0000000), wk =   0.0100000
        k(   69) = (  -0.4000000   0.0000000   0.0000000), wk =   0.0100000
        k(   70) = (  -0.4000000   0.1154701   0.0000000), wk =   0.0100000
        k(   71) = (  -0.3000000   0.1732051   0.0000000), wk =   0.0100000
        k(   72) = (  -0.3000000   0.2886751   0.0000000), wk =   0.0100000
        k(   73) = (  -0.3000000   0.4041452   0.0000000), wk =   0.0100000
        k(   74) = (  -0.3000000   0.5196152   0.0000000), wk =   0.0100000
        k(   75) = (  -0.3000000   0.6350853   0.0000000), wk =   0.0100000
        k(   76) = (  -0.3000000  -0.4041452   0.0000000), wk =   0.0100000
        k(   77) = (  -0.3000000  -0.2886751   0.0000000), wk =   0.0100000
        k(   78) = (  -0.3000000  -0.1732051   0.0000000), wk =   0.0100000
        k(   79) = (  -0.3000000  -0.0577350   0.0000000), wk =   0.0100000
        k(   80) = (  -0.3000000   0.0577350   0.0000000), wk =   0.0100000
        k(   81) = (  -0.2000000   0.1154701   0.0000000), wk =   0.0100000
        k(   82) = (  -0.2000000   0.2309401   0.0000000), wk =   0.0100000
        k(   83) = (  -0.2000000   0.3464102   0.0000000), wk =   0.0100000
        k(   84) = (  -0.2000000   0.4618802   0.0000000), wk =   0.0100000
        k(   85) = (  -0.2000000   0.5773503   0.0000000), wk =   0.0100000
        k(   86) = (  -0.2000000  -0.4618802   0.0000000), wk =   0.0100000
        k(   87) = (  -0.2000000  -0.3464102   0.0000000), wk =   0.0100000
        k(   88) = (  -0.2000000  -0.2309401   0.0000000), wk =   0.0100000
        k(   89) = (  -0.2000000  -0.1154701   0.0000000), wk =   0.0100000
        k(   90) = (  -0.2000000   0.0000000   0.0000000), wk =   0.0100000
        k(   91) = (  -0.1000000   0.0577350   0.0000000), wk =   0.0100000
        k(   92) = (  -0.1000000   0.1732051   0.0000000), wk =   0.0100000
        k(   93) = (  -0.1000000   0.2886751   0.0000000), wk =   0.0100000
        k(   94) = (  -0.1000000   0.4041452   0.0000000), wk =   0.0100000
        k(   95) = (  -0.1000000   0.5196152   0.0000000), wk =   0.0100000
        k(   96) = (  -0.1000000  -0.5196152   0.0000000), wk =   0.0100000
        k(   97) = (  -0.1000000  -0.4041452   0.0000000), wk =   0.0100000
        k(   98) = (  -0.1000000  -0.2886751   0.0000000), wk =   0.0100000
        k(   99) = (  -0.1000000  -0.1732051   0.0000000), wk =   0.0100000
        k(  100) = (  -0.1000000  -0.0577350   0.0000000), wk =   0.0100000

                       cryst. coord.
        k(    1) = (   0.0000000   0.0000000   0.0000000), wk =   0.0100000
        k(    2) = (   0.0000000   0.1000000   0.0000000), wk =   0.0100000
        k(    3) = (   0.0000000   0.2000000   0.0000000), wk =   0.0100000
        k(    4) = (   0.0000000   0.3000000   0.0000000), wk =   0.0100000
        k(    5) = (   0.0000000   0.4000000   0.0000000), wk =   0.0100000
        k(    6) = (   0.0000000  -0.5000000   0.0000000), wk =   0.0100000
        k(    7) = (   0.0000000  -0.4000000   0.0000000), wk =   0.0100000
        k(    8) = (   0.0000000  -0.3000000   0.0000000), wk =   0.0100000
        k(    9) = (   0.0000000  -0.2000000   0.0000000), wk =   0.0100000
        k(   10) = (   0.0000000  -0.1000000   0.0000000), wk =   0.0100000
        k(   11) = (   0.1000000   0.0000000   0.0000000), wk =   0.0100000
        k(   12) = (   0.1000000   0.1000000   0.0000000), wk =   0.0100000
        k(   13) = (   0.1000000   0.2000000   0.0000000), wk =   0.0100000
        k(   14) = (   0.1000000   0.3000000   0.0000000), wk =   0.0100000
        k(   15) = (   0.1000000   0.4000000   0.0000000), wk =   0.0100000
        k(   16) = (   0.1000000  -0.5000000   0.0000000), wk =   0.0100000
        k(   17) = (   0.1000000  -0.4000000   0.0000000), wk =   0.0100000
        k(   18) = (   0.1000000  -0.3000000   0.0000000), wk =   0.0100000
        k(   19) = (   0.1000000  -0.2000000   0.0000000), wk =   0.0100000
        k(   20) = (   0.1000000  -0.1000000   0.0000000), wk =   0.0100000
        k(   21) = (   0.2000000   0.0000000   0.0000000), wk =   0.0100000
        k(   22) = (   0.2000000   0.1000000   0.0000000), wk =   0.0100000
        k(   23) = (   0.2000000   0.2000000   0.0000000), wk =   0.0100000
        k(   24) = (   0.2000000   0.3000000   0.0000000), wk =   0.0100000
        k(   25) = (   0.2000000   0.4000000   0.0000000), wk =   0.0100000
        k(   26) = (   0.2000000  -0.5000000   0.0000000), wk =   0.0100000
        k(   27) = (   0.2000000  -0.4000000   0.0000000), wk =   0.0100000
        k(   28) = (   0.2000000  -0.3000000   0.0000000), wk =   0.0100000
        k(   29) = (   0.2000000  -0.2000000   0.0000000), wk =   0.0100000
        k(   30) = (   0.2000000  -0.1000000   0.0000000), wk =   0.0100000
        k(   31) = (   0.3000000   0.0000000   0.0000000), wk =   0.0100000
        k(   32) = (   0.3000000   0.1000000   0.0000000), wk =   0.0100000
        k(   33) = (   0.3000000   0.2000000   0.0000000), wk =   0.0100000
        k(   34) = (   0.3000000   0.3000000   0.0000000), wk =   0.0100000
        k(   35) = (   0.3000000   0.4000000   0.0000000), wk =   0.0100000
        k(   36) = (   0.3000000  -0.5000000   0.0000000), wk =   0.0100000
        k(   37) = (   0.3000000  -0.4000000   0.0000000), wk =   0.0100000
        k(   38) = (   0.3000000  -0.3000000   0.0000000), wk =   0.0100000
        k(   39) = (   0.3000000  -0.2000000   0.0000000), wk =   0.0100000
        k(   40) = (   0.3000000  -0.1000000   0.0000000), wk =   0.0100000
        k(   41) = (   0.4000000   0.0000000   0.0000000), wk =   0.0100000
        k(   42) = (   0.4000000   0.1000000   0.0000000), wk =   0.0100000
        k(   43) = (   0.4000000   0.2000000   0.0000000), wk =   0.0100000
        k(   44) = (   0.4000000   0.3000000   0.0000000), wk =   0.0100000
        k(   45) = (   0.4000000   0.4000000   0.0000000), wk =   0.0100000
        k(   46) = (   0.4000000  -0.5000000   0.0000000), wk =   0.0100000
        k(   47) = (   0.4000000  -0.4000000   0.0000000), wk =   0.0100000
        k(   48) = (   0.4000000  -0.3000000   0.0000000), wk =   0.0100000
        k(   49) = (   0.4000000  -0.2000000   0.0000000), wk =   0.0100000
        k(   50) = (   0.4000000  -0.1000000   0.0000000), wk =   0.0100000
        k(   51) = (  -0.5000000  -0.0000000   0.0000000), wk =   0.0100000
        k(   52) = (  -0.5000000   0.1000000   0.0000000), wk =   0.0100000
        k(   53) = (  -0.5000000   0.2000000   0.0000000), wk =   0.0100000
        k(   54) = (  -0.5000000   0.3000000   0.0000000), wk =   0.0100000
        k(   55) = (  -0.5000000   0.4000000   0.0000000), wk =   0.0100000
        k(   56) = (  -0.5000000  -0.5000000   0.0000000), wk =   0.0100000
        k(   57) = (  -0.5000000  -0.4000000   0.0000000), wk =   0.0100000
        k(   58) = (  -0.5000000  -0.3000000   0.0000000), wk =   0.0100000
        k(   59) = (  -0.5000000  -0.2000000   0.0000000), wk =   0.0100000
        k(   60) = (  -0.5000000  -0.1000000   0.0000000), wk =   0.0100000
        k(   61) = (  -0.4000000  -0.0000000   0.0000000), wk =   0.0100000
        k(   62) = (  -0.4000000   0.1000000   0.0000000), wk =   0.0100000
        k(   63) = (  -0.4000000   0.2000000   0.0000000), wk =   0.0100000
        k(   64) = (  -0.4000000   0.3000000   0.0000000), wk =   0.0100000
        k(   65) = (  -0.4000000   0.4000000   0.0000000), wk =   0.0100000
        k(   66) = (  -0.4000000  -0.5000000   0.0000000), wk =   0.0100000
        k(   67) = (  -0.4000000  -0.4000000   0.0000000), wk =   0.0100000
        k(   68) = (  -0.4000000  -0.3000000   0.0000000), wk =   0.0100000
        k(   69) = (  -0.4000000  -0.2000000   0.0000000), wk =   0.0100000
        k(   70) = (  -0.4000000  -0.1000000   0.0000000), wk =   0.0100000
        k(   71) = (  -0.3000000   0.0000000   0.0000000), wk =   0.0100000
        k(   72) = (  -0.3000000   0.1000000   0.0000000), wk =   0.0100000
        k(   73) = (  -0.3000000   0.2000000   0.0000000), wk =   0.0100000
        k(   74) = (  -0.3000000   0.3000000   0.0000000), wk =   0.0100000
        k(   75) = (  -0.3000000   0.4000000   0.0000000), wk =   0.0100000
        k(   76) = (  -0.3000000  -0.5000000   0.0000000), wk =   0.0100000
        k(   77) = (  -0.3000000  -0.4000000   0.0000000), wk =   0.0100000
        k(   78) = (  -0.3000000  -0.3000000   0.0000000), wk =   0.0100000
        k(   79) = (  -0.3000000  -0.2000000   0.0000000), wk =   0.0100000
        k(   80) = (  -0.3000000  -0.1000000   0.0000000), wk =   0.0100000
        k(   81) = (  -0.2000000  -0.0000000   0.0000000), wk =   0.0100000
        k(   82) = (  -0.2000000   0.1000000   0.0000000), wk =   0.0100000
        k(   83) = (  -0.2000000   0.2000000   0.0000000), wk =   0.0100000
        k(   84) = (  -0.2000000   0.3000000   0.0000000), wk =   0.0100000
        k(   85) = (  -0.2000000   0.4000000   0.0000000), wk =   0.0100000
        k(   86) = (  -0.2000000  -0.5000000   0.0000000), wk =   0.0100000
        k(   87) = (  -0.2000000  -0.4000000   0.0000000), wk =   0.0100000
        k(   88) = (  -0.2000000  -0.3000000   0.0000000), wk =   0.0100000
        k(   89) = (  -0.2000000  -0.2000000   0.0000000), wk =   0.0100000
        k(   90) = (  -0.2000000  -0.1000000   0.0000000), wk =   0.0100000
        k(   91) = (  -0.1000000  -0.0000000   0.0000000), wk =   0.0100000
        k(   92) = (  -0.1000000   0.1000000   0.0000000), wk =   0.0100000
        k(   93) = (  -0.1000000   0.2000000   0.0000000), wk =   0.0100000
        k(   94) = (  -0.1000000   0.3000000   0.0000000), wk =   0.0100000
        k(   95) = (  -0.1000000   0.4000000   0.0000000), wk =   0.0100000
        k(   96) = (  -0.1000000  -0.5000000   0.0000000), wk =   0.0100000
        k(   97) = (  -0.1000000  -0.4000000   0.0000000), wk =   0.0100000
        k(   98) = (  -0.1000000  -0.3000000   0.0000000), wk =   0.0100000
        k(   99) = (  -0.1000000  -0.2000000   0.0000000), wk =   0.0100000
        k(  100) = (  -0.1000000  -0.1000000   0.0000000), wk =   0.0100000

     Dense  grid:   615267 G-vectors     FFT dimensions: (  60,  60, 384)

     Smooth grid:    81721 G-vectors     FFT dimensions: (  32,  32, 200)

     Largest allocated arrays     est. size (Mb)     dimensions
        Kohn-Sham Wavefunctions         0.24 Mb     (     470,   34)
        NL pseudopotentials             0.22 Mb     (     235,   62)
        Each V/rho on FFT grid          0.44 Mb     (   28800)
        Each G-vector array             0.10 Mb     (   12818)
        G-vector shells                 0.05 Mb     (    6110)
     Largest temporary arrays     est. size (Mb)     dimensions
        Auxiliary wavefunctions         0.98 Mb     (     470,  136)
        Each subspace H/S matrix        0.28 Mb     (     136,  136)
        Each <psi_i|beta_j> matrix      0.06 Mb     (      62,   2,   34)
        Arrays for rho mixing           3.52 Mb     (   28800,    8)

     Initial potential from superposition of free atoms
     Check: negative starting charge=   -0.000213

     starting charge   25.99876, renormalised to   26.00000

     negative rho (up, down):  2.132E-04 0.000E+00
     Starting wfc are   42 randomized atomic wfcs

     total cpu time spent up to now is       58.1 secs

     per-process dynamical memory:    67.0 Mb

     Self-consistent Calculation

     iteration #  1     ecut=    65.00 Ry     beta=0.70
     Davidson diagonalization with overlap
     ethr =  1.00E-02,  avg # of iterations =  3.0

     negative rho (up, down):  5.222E-05 0.000E+00

     total cpu time spent up to now is       93.0 secs

     total energy              =    -193.22673750 Ry
     Harris-Foulkes estimate   =    -193.57717968 Ry
     estimated scf accuracy    <       0.44953865 Ry

     iteration #  2     ecut=    65.00 Ry     beta=0.70
     Davidson diagonalization with overlap
     ethr =  1.73E-03,  avg # of iterations =  3.0

     negative rho (up, down):  3.489E-04 0.000E+00

     total cpu time spent up to now is      127.0 secs

     total energy              =    -192.74828852 Ry
     Harris-Foulkes estimate   =    -194.03323715 Ry
     estimated scf accuracy    <       4.79765713 Ry

     iteration #  3     ecut=    65.00 Ry     beta=0.70
     Davidson diagonalization with overlap
     ethr =  1.73E-03,  avg # of iterations =  2.8

     negative rho (up, down):  4.503E-04 0.000E+00

     total cpu time spent up to now is      156.5 secs

     total energy              =    -193.46434414 Ry
     Harris-Foulkes estimate   =    -193.50708049 Ry
     estimated scf accuracy    <       0.16702570 Ry

     iteration #  4     ecut=    65.00 Ry     beta=0.70
     Davidson diagonalization with overlap
     ethr =  6.42E-04,  avg # of iterations =  2.0

     negative rho (up, down):  6.139E-04 0.000E+00

     total cpu time spent up to now is      181.6 secs

     total energy              =    -193.47976042 Ry
     Harris-Foulkes estimate   =    -193.48281174 Ry
     estimated scf accuracy    <       0.00939007 Ry

     iteration #  5     ecut=    65.00 Ry     beta=0.70
     Davidson diagonalization with overlap
     ethr =  3.61E-05,  avg # of iterations =  2.8

     negative rho (up, down):  1.679E-03 0.000E+00

     total cpu time spent up to now is      211.7 secs

     total energy              =    -193.48214768 Ry
     Harris-Foulkes estimate   =    -193.48221230 Ry
     estimated scf accuracy    <       0.00082921 Ry

     iteration #  6     ecut=    65.00 Ry     beta=0.70
     Davidson diagonalization with overlap
     ethr =  3.19E-06,  avg # of iterations =  2.5

     negative rho (up, down):  7.004E-03 0.000E+00

     total cpu time spent up to now is      238.2 secs

     total energy              =    -193.48181290 Ry
     Harris-Foulkes estimate   =    -193.48229305 Ry
     estimated scf accuracy    <       0.00095564 Ry

     iteration #  7     ecut=    65.00 Ry     beta=0.70
     Davidson diagonalization with overlap
     ethr =  3.19E-06,  avg # of iterations =  1.1

     negative rho (up, down):  1.411E-02 0.000E+00

     total cpu time spent up to now is      261.2 secs

     total energy              =    -193.48019043 Ry
     Harris-Foulkes estimate   =    -193.48183172 Ry
     estimated scf accuracy    <       0.00110501 Ry

     iteration #  8     ecut=    65.00 Ry     beta=0.70
     Davidson diagonalization with overlap
     ethr =  3.19E-06,  avg # of iterations =  2.0

     negative rho (up, down):  4.360E-03 0.000E+00

     total cpu time spent up to now is      286.2 secs

     total energy              =    -193.48167984 Ry
     Harris-Foulkes estimate   =    -193.48062455 Ry
     estimated scf accuracy    <       0.00029096 Ry

     iteration #  9     ecut=    65.00 Ry     beta=0.70
     Davidson diagonalization with overlap
     ethr =  1.12E-06,  avg # of iterations =  2.1

     negative rho (up, down):  2.169E-03 0.000E+00

     total cpu time spent up to now is      312.5 secs

     total energy              =    -193.48185991 Ry
     Harris-Foulkes estimate   =    -193.48173147 Ry
     estimated scf accuracy    <       0.00032168 Ry

     iteration # 10     ecut=    65.00 Ry     beta=0.70
     Davidson diagonalization with overlap
     ethr =  1.12E-06,  avg # of iterations =  2.0

     negative rho (up, down):  1.808E-03 0.000E+00

     total cpu time spent up to now is      337.5 secs

     total energy              =    -193.48190872 Ry
     Harris-Foulkes estimate   =    -193.48189328 Ry
     estimated scf accuracy    <       0.00003884 Ry

     iteration # 11     ecut=    65.00 Ry     beta=0.70
     Davidson diagonalization with overlap
     ethr =  1.49E-07,  avg # of iterations =  2.0

     negative rho (up, down):  1.269E-03 0.000E+00

     total cpu time spent up to now is      362.9 secs

     total energy              =    -193.48195090 Ry
     Harris-Foulkes estimate   =    -193.48191621 Ry
     estimated scf accuracy    <       0.00000960 Ry

     iteration # 12     ecut=    65.00 Ry     beta=0.70
     Davidson diagonalization with overlap
     ethr =  3.69E-08,  avg # of iterations =  2.0

     negative rho (up, down):  1.401E-03 0.000E+00

     total cpu time spent up to now is      390.0 secs

     total energy              =    -193.48194178 Ry
     Harris-Foulkes estimate   =    -193.48195175 Ry
     estimated scf accuracy    <       0.00000975 Ry

     iteration # 13     ecut=    65.00 Ry     beta=0.70
     Davidson diagonalization with overlap
     ethr =  3.69E-08,  avg # of iterations =  2.0

     negative rho (up, down):  1.111E-03 0.000E+00

     total cpu time spent up to now is      416.5 secs

     total energy              =    -193.48195506 Ry
     Harris-Foulkes estimate   =    -193.48194408 Ry
     estimated scf accuracy    <       0.00001289 Ry

     iteration # 14     ecut=    65.00 Ry     beta=0.70
     Davidson diagonalization with overlap
     ethr =  3.69E-08,  avg # of iterations =  2.0

     negative rho (up, down):  1.066E-03 0.000E+00

     total cpu time spent up to now is      442.1 secs

     total energy              =    -193.48195933 Ry
     Harris-Foulkes estimate   =    -193.48195708 Ry
     estimated scf accuracy    <       0.00000313 Ry

     iteration # 15     ecut=    65.00 Ry     beta=0.70
     Davidson diagonalization with overlap
     ethr =  1.20E-08,  avg # of iterations =  2.0

     negative rho (up, down):  3.028E-04 0.000E+00

     total cpu time spent up to now is      467.5 secs

     total energy              =    -193.48198510 Ry
     Harris-Foulkes estimate   =    -193.48196138 Ry
     estimated scf accuracy    <       0.00000032 Ry

     iteration # 16     ecut=    65.00 Ry     beta=0.70
     Davidson diagonalization with overlap
     ethr =  1.23E-09,  avg # of iterations =  2.4

     negative rho (up, down):  1.784E-04 0.000E+00

     total cpu time spent up to now is      495.7 secs

     total energy              =    -193.48198666 Ry
     Harris-Foulkes estimate   =    -193.48198542 Ry
     estimated scf accuracy    <       0.00000056 Ry

     iteration # 17     ecut=    65.00 Ry     beta=0.70
     Davidson diagonalization with overlap
     ethr =  1.23E-09,  avg # of iterations =  2.0

     negative rho (up, down):  1.446E-04 0.000E+00

     total cpu time spent up to now is      521.0 secs

     total energy              =    -193.48198671 Ry
     Harris-Foulkes estimate   =    -193.48198670 Ry
     estimated scf accuracy    <       0.00000006 Ry

     iteration # 18     ecut=    65.00 Ry     beta=0.70
     Davidson diagonalization with overlap
     ethr =  2.48E-10,  avg # of iterations =  2.0

     negative rho (up, down):  1.046E-04 0.000E+00

     total cpu time spent up to now is      545.9 secs

     total energy              =    -193.48198681 Ry
     Harris-Foulkes estimate   =    -193.48198673 Ry
     estimated scf accuracy    <       0.00000004 Ry

     iteration # 19     ecut=    65.00 Ry     beta=0.70
     Davidson diagonalization with overlap
     ethr =  1.58E-10,  avg # of iterations =  2.0

     negative rho (up, down):  1.055E-04 0.000E+00

     total cpu time spent up to now is      570.8 secs

     total energy              =    -193.48198678 Ry
     Harris-Foulkes estimate   =    -193.48198681 Ry
     estimated scf accuracy    <       0.00000006 Ry

     iteration # 20     ecut=    65.00 Ry     beta=0.70
     Davidson diagonalization with overlap
     ethr =  1.58E-10,  avg # of iterations =  2.0

     negative rho (up, down):  9.146E-05 0.000E+00

     total cpu time spent up to now is      595.7 secs

     total energy              =    -193.48198687 Ry
     Harris-Foulkes estimate   =    -193.48198679 Ry
     estimated scf accuracy    <       0.00000004 Ry

     iteration # 21     ecut=    65.00 Ry     beta=0.70
     Davidson diagonalization with overlap
     ethr =  1.39E-10,  avg # of iterations =  2.0

     negative rho (up, down):  1.220E-04 0.000E+00

     total cpu time spent up to now is      620.5 secs

     total energy              =    -193.48198673 Ry
     Harris-Foulkes estimate   =    -193.48198689 Ry
     estimated scf accuracy    <       0.00000016 Ry

     iteration # 22     ecut=    65.00 Ry     beta=0.70
     Davidson diagonalization with overlap
     ethr =  1.39E-10,  avg # of iterations =  2.0

     negative rho (up, down):  9.981E-05 0.000E+00

     total cpu time spent up to now is      645.6 secs

     total energy              =    -193.48198669 Ry
     Harris-Foulkes estimate   =    -193.48198676 Ry
     estimated scf accuracy    <       0.00000005 Ry

     iteration # 23     ecut=    65.00 Ry     beta=0.70
     Davidson diagonalization with overlap
     ethr =  1.39E-10,  avg # of iterations =  2.0

     negative rho (up, down):  8.759E-05 0.000E+00

     total cpu time spent up to now is      671.4 secs

     total energy              =    -193.48198678 Ry
     Harris-Foulkes estimate   =    -193.48198672 Ry
     estimated scf accuracy    <       0.00000011 Ry

     iteration # 24     ecut=    65.00 Ry     beta=0.70
     Davidson diagonalization with overlap
     ethr =  1.39E-10,  avg # of iterations =  2.0

     negative rho (up, down):  8.433E-05 0.000E+00

     total cpu time spent up to now is      701.0 secs

     total energy              =    -193.48198684 Ry
     Harris-Foulkes estimate   =    -193.48198680 Ry
     estimated scf accuracy    <       0.00000009 Ry

     iteration # 25     ecut=    65.00 Ry     beta=0.70
     Davidson diagonalization with overlap
     ethr =  1.39E-10,  avg # of iterations =  2.0

     negative rho (up, down):  9.162E-05 0.000E+00

     total cpu time spent up to now is      726.9 secs

     total energy              =    -193.48198688 Ry
     Harris-Foulkes estimate   =    -193.48198685 Ry
     estimated scf accuracy    <       0.00000004 Ry

     iteration # 26     ecut=    65.00 Ry     beta=0.70
     Davidson diagonalization with overlap
     ethr =  1.39E-10,  avg # of iterations =  2.0

     negative rho (up, down):  9.225E-05 0.000E+00

     total cpu time spent up to now is      751.8 secs

     total energy              =    -193.48198689 Ry
     Harris-Foulkes estimate   =    -193.48198688 Ry
     estimated scf accuracy    <       0.00000012 Ry

     iteration # 27     ecut=    65.00 Ry     beta=0.70
     Davidson diagonalization with overlap
     ethr =  1.39E-10,  avg # of iterations =  2.0

     negative rho (up, down):  1.257E-04 0.000E+00

     total cpu time spent up to now is      776.6 secs

     total energy              =    -193.48198645 Ry
     Harris-Foulkes estimate   =    -193.48198690 Ry
     estimated scf accuracy    <       0.00000007 Ry

     iteration # 28     ecut=    65.00 Ry     beta=0.70
     Davidson diagonalization with overlap
     ethr =  1.39E-10,  avg # of iterations =  2.0

     negative rho (up, down):  1.043E-04 0.000E+00

     total cpu time spent up to now is      801.5 secs

     total energy              =    -193.48198671 Ry
     Harris-Foulkes estimate   =    -193.48198648 Ry
     estimated scf accuracy    <       0.00000001 Ry

     iteration # 29     ecut=    65.00 Ry     beta=0.70
     Davidson diagonalization with overlap
     ethr =  5.01E-11,  avg # of iterations =  2.0

     negative rho (up, down):  7.933E-05 0.000E+00

     total cpu time spent up to now is      826.7 secs

     total energy              =    -193.48198689 Ry
     Harris-Foulkes estimate   =    -193.48198672 Ry
     estimated scf accuracy    <          4.8E-09 Ry

     iteration # 30     ecut=    65.00 Ry     beta=0.70
     Davidson diagonalization with overlap
     ethr =  1.86E-11,  avg # of iterations =  2.0

     negative rho (up, down):  7.510E-05 0.000E+00

     total cpu time spent up to now is      851.8 secs

     total energy              =    -193.48198691 Ry
     Harris-Foulkes estimate   =    -193.48198689 Ry
     estimated scf accuracy    <          3.6E-09 Ry

     iteration # 31     ecut=    65.00 Ry     beta=0.70
     Davidson diagonalization with overlap
     ethr =  1.39E-11,  avg # of iterations =  2.0

     negative rho (up, down):  7.516E-05 0.000E+00

     total cpu time spent up to now is      876.6 secs

     total energy              =    -193.48198691 Ry
     Harris-Foulkes estimate   =    -193.48198691 Ry
     estimated scf accuracy    <          6.6E-09 Ry

     iteration # 32     ecut=    65.00 Ry     beta=0.70
     Davidson diagonalization with overlap
     ethr =  1.39E-11,  avg # of iterations =  2.0

     negative rho (up, down):  8.345E-05 0.000E+00

     total cpu time spent up to now is      901.5 secs

     total energy              =    -193.48198690 Ry
     Harris-Foulkes estimate   =    -193.48198691 Ry
     estimated scf accuracy    <          8.7E-09 Ry

     iteration # 33     ecut=    65.00 Ry     beta=0.70
     Davidson diagonalization with overlap
     ethr =  1.39E-11,  avg # of iterations =  2.0

     negative rho (up, down):  7.719E-05 0.000E+00

     total cpu time spent up to now is      927.2 secs

     total energy              =    -193.48198691 Ry
     Harris-Foulkes estimate   =    -193.48198691 Ry
     estimated scf accuracy    <          8.5E-09 Ry

     iteration # 34     ecut=    65.00 Ry     beta=0.70
     Davidson diagonalization with overlap
     ethr =  1.39E-11,  avg # of iterations =  2.0

     negative rho (up, down):  7.424E-05 0.000E+00

     total cpu time spent up to now is      953.0 secs

     total energy              =    -193.48198692 Ry
     Harris-Foulkes estimate   =    -193.48198691 Ry
     estimated scf accuracy    <          1.9E-09 Ry

     iteration # 35     ecut=    65.00 Ry     beta=0.70
     Davidson diagonalization with overlap
     ethr =  7.29E-12,  avg # of iterations =  2.0

     negative rho (up, down):  7.375E-05 0.000E+00

     total cpu time spent up to now is      979.1 secs

     total energy              =    -193.48198692 Ry
     Harris-Foulkes estimate   =    -193.48198692 Ry
     estimated scf accuracy    <          1.3E-09 Ry

     iteration # 36     ecut=    65.00 Ry     beta=0.70
     Davidson diagonalization with overlap
     ethr =  5.06E-12,  avg # of iterations =  2.0

     negative rho (up, down):  7.317E-05 0.000E+00

     total cpu time spent up to now is     1005.3 secs

     total energy              =    -193.48198692 Ry
     Harris-Foulkes estimate   =    -193.48198692 Ry
     estimated scf accuracy    <          5.0E-10 Ry

     iteration # 37     ecut=    65.00 Ry     beta=0.70
     Davidson diagonalization with overlap
     ethr =  1.91E-12,  avg # of iterations =  2.0

     negative rho (up, down):  7.302E-05 0.000E+00

     total cpu time spent up to now is     1030.2 secs

     total energy              =    -193.48198692 Ry
     Harris-Foulkes estimate   =    -193.48198692 Ry
     estimated scf accuracy    <          2.7E-10 Ry

     iteration # 38     ecut=    65.00 Ry     beta=0.70
     Davidson diagonalization with overlap
     ethr =  1.05E-12,  avg # of iterations =  2.0

     negative rho (up, down):  7.328E-05 0.000E+00

     total cpu time spent up to now is     1054.3 secs

     total energy              =    -193.48198692 Ry
     Harris-Foulkes estimate   =    -193.48198692 Ry
     estimated scf accuracy    <          2.9E-10 Ry

     iteration # 39     ecut=    65.00 Ry     beta=0.70
     Davidson diagonalization with overlap
     ethr =  1.05E-12,  avg # of iterations =  2.0

     negative rho (up, down):  7.305E-05 0.000E+00

     total cpu time spent up to now is     1079.2 secs

     total energy              =    -193.48198692 Ry
     Harris-Foulkes estimate   =    -193.48198692 Ry
     estimated scf accuracy    <          3.1E-10 Ry

     iteration # 40     ecut=    65.00 Ry     beta=0.70
     Davidson diagonalization with overlap
     ethr =  1.05E-12,  avg # of iterations =  2.0

     negative rho (up, down):  7.300E-05 0.000E+00

     total cpu time spent up to now is     1104.1 secs

     total energy              =    -193.48198692 Ry
     Harris-Foulkes estimate   =    -193.48198692 Ry
     estimated scf accuracy    <          1.2E-10 Ry

     iteration # 41     ecut=    65.00 Ry     beta=0.70
     Davidson diagonalization with overlap
     ethr =  4.73E-13,  avg # of iterations =  2.0

     negative rho (up, down):  7.288E-05 0.000E+00

     total cpu time spent up to now is     1129.2 secs

     End of self-consistent calculation

          k = 0.0000 0.0000 0.0000 ( 10231 PWs)   bands (ev):

   -61.5686 -61.5686 -37.3340 -37.3340 -34.9093 -34.9093 -34.7202 -34.7202
   -15.1096 -15.1096 -13.7474 -13.7474  -6.6704  -6.6704  -3.5347  -3.5347
    -3.4674  -3.4674  -2.7356  -2.7356  -2.3826  -2.3826  -2.2964  -2.2964
    -0.9567  -0.9567   1.9728   1.9728   2.0540   2.0540   2.2893   2.2893
     2.2936   2.2936

     occupation numbers 
     1.0000   1.0000   1.0000   1.0000   1.0000   1.0000   1.0000   1.0000
     1.0000   1.0000   1.0000   1.0000   1.0000   1.0000   1.0000   1.0000
     1.0000   1.0000   1.0000   1.0000   1.0000   1.0000   1.0000   1.0000
     1.0000   1.0000   0.0000   0.0000   0.0000   0.0000   0.0000   0.0000
     0.0000   0.0000

          k = 0.0000 0.1155 0.0000 ( 10233 PWs)   bands (ev):

   -61.5642 -61.5642 -37.3451 -37.3451 -34.9146 -34.9146 -34.7478 -34.7478
   -14.9522 -14.9522 -13.6830 -13.6830  -6.4952  -6.4952  -3.8385  -3.8385
    -3.3605  -3.3605  -3.3147  -3.3147  -2.5818  -2.5818  -1.9825  -1.9825
    -1.0249  -1.0249   1.8129   1.8129   1.8788   1.8788   2.1123   2.1123
     2.2877   2.2877

     occupation numbers 
     1.0000   1.0000   1.0000   1.0000   1.0000   1.0000   1.0000   1.0000
     1.0000   1.0000   1.0000   1.0000   1.0000   1.0000   1.0000   1.0000
     1.0000   1.0000   1.0000   1.0000   1.0000   1.0000   1.0000   1.0000
     1.0000   1.0000   0.0000   0.0000   0.0000   0.0000   0.0000   0.0000
     0.0000   0.0000

          k = 0.0000 0.2309 0.0000 ( 10237 PWs)   bands (ev):

   -61.5527 -61.5527 -37.3754 -37.3754 -34.9372 -34.9372 -34.8087 -34.8087
   -14.5151 -14.5151 -13.5043 -13.5043  -6.1115  -6.1115  -4.5084  -4.5084
    -4.1551  -4.1551  -3.1052  -3.1052  -2.8924  -2.8924  -2.0344  -2.0344
    -1.3798  -1.3798   1.3606   1.3606   1.7520   1.7520   1.8963   1.8963
     2.8222   2.8222

     occupation numbers 
     1.0000   1.0000   1.0000   1.0000   1.0000   1.0000   1.0000   1.0000
     1.0000   1.0000   1.0000   1.0000   1.0000   1.0000   1.0000   1.0000
     1.0000   1.0000   1.0000   1.0000   1.0000   1.0000   1.0000   1.0000
     1.0000   1.0000   0.0000   0.0000   0.0000   0.0000   0.0000   0.0000
     0.0000   0.0000

          k = 0.0000 0.3464 0.0000 ( 10231 PWs)   bands (ev):

   -61.5385 -61.5385 -37.4153 -37.4153 -34.9932 -34.9932 -34.8507 -34.8507
   -13.9068 -13.9068 -13.2595 -13.2595  -6.1275  -6.1275  -4.9615  -4.9615
    -4.8198  -4.8198  -3.6147  -3.6147  -2.4404  -2.4404  -2.3260  -2.3260
    -1.8614  -1.8614   1.3966   1.3966   1.5056   1.5056   2.4323   2.4323
     3.2786   3.2786

     occupation numbers 
     1.0000   1.0000   1.0000   1.0000   1.0000   1.0000   1.0000   1.0000
     1.0000   1.0000   1.0000   1.0000   1.0000   1.0000   1.0000   1.0000
     1.0000   1.0000   1.0000   1.0000   1.0000   1.0000   1.0000   1.0000
     1.0000   1.0000   0.0000   0.0000   0.0000   0.0000   0.0000   0.0000
     0.0000   0.0000

          k = 0.0000 0.4619 0.0000 ( 10187 PWs)   bands (ev):

   -61.5270 -61.5270 -37.4495 -37.4495 -35.0548 -35.0548 -34.8640 -34.8640
   -13.3295 -13.3295 -13.0361 -13.0361  -6.6032  -6.6032  -5.5913  -5.5913
    -4.9377  -4.9377  -3.9625  -3.9625  -2.7202  -2.7202  -1.9221  -1.9221
    -1.7630  -1.7630   1.4645   1.4645   1.7827   1.7827   2.9206   2.9206
     3.5260   3.5260

     occupation numbers 
     1.0000   1.0000   1.0000   1.0000   1.0000   1.0000   1.0000   1.0000
     1.0000   1.0000   1.0000   1.0000   1.0000   1.0000   1.0000   1.0000
     1.0000   1.0000   1.0000   1.0000   1.0000   1.0000   1.0000   1.0000
     1.0000   1.0000   0.0000   0.0000   0.0000   0.0000   0.0000   0.0000
     0.0000   0.0000

          k = 0.0000-0.5774 0.0000 ( 10206 PWs)   bands (ev):

   -61.5226 -61.5226 -37.4630 -37.4630 -35.0798 -35.0798 -34.8667 -34.8667
   -13.0780 -13.0780 -12.9433 -12.9433  -6.8420  -6.8420  -5.8361  -5.8361
    -5.0595  -5.0595  -4.0841  -4.0841  -2.8135  -2.8135  -1.7693  -1.7693
    -1.5319  -1.5319   1.5231   1.5231   2.0388   2.0388   3.0716   3.0716
     3.5978   3.5978

     occupation numbers 
     1.0000   1.0000   1.0000   1.0000   1.0000   1.0000   1.0000   1.0000
     1.0000   1.0000   1.0000   1.0000   1.0000   1.0000   1.0000   1.0000
     1.0000   1.0000   1.0000   1.0000   1.0000   1.0000   1.0000   1.0000
     1.0000   1.0000   0.0000   0.0000   0.0000   0.0000   0.0000   0.0000
     0.0000   0.0000

          k = 0.0000-0.4619 0.0000 ( 10187 PWs)   bands (ev):

   -61.5270 -61.5270 -37.4495 -37.4495 -35.0548 -35.0548 -34.8640 -34.8640
   -13.3295 -13.3295 -13.0361 -13.0361  -6.6032  -6.6032  -5.5913  -5.5913
    -4.9377  -4.9377  -3.9625  -3.9625  -2.7202  -2.7202  -1.9221  -1.9221
    -1.7630  -1.7630   1.4645   1.4645   1.7827   1.7827   2.9206   2.9206
     3.5260   3.5260

     occupation numbers 
     1.0000   1.0000   1.0000   1.0000   1.0000   1.0000   1.0000   1.0000
     1.0000   1.0000   1.0000   1.0000   1.0000   1.0000   1.0000   1.0000
     1.0000   1.0000   1.0000   1.0000   1.0000   1.0000   1.0000   1.0000
     1.0000   1.0000   0.0000   0.0000   0.0000   0.0000   0.0000   0.0000
     0.0000   0.0000

          k = 0.0000-0.3464 0.0000 ( 10231 PWs)   bands (ev):

   -61.5385 -61.5385 -37.4153 -37.4153 -34.9932 -34.9932 -34.8507 -34.8507
   -13.9068 -13.9068 -13.2595 -13.2595  -6.1275  -6.1275  -4.9615  -4.9615
    -4.8198  -4.8198  -3.6147  -3.6147  -2.4404  -2.4404  -2.3260  -2.3260
    -1.8614  -1.8614   1.3966   1.3966   1.5056   1.5056   2.4323   2.4323
     3.2786   3.2786

     occupation numbers 
     1.0000   1.0000   1.0000   1.0000   1.0000   1.0000   1.0000   1.0000
     1.0000   1.0000   1.0000   1.0000   1.0000   1.0000   1.0000   1.0000
     1.0000   1.0000   1.0000   1.0000   1.0000   1.0000   1.0000   1.0000
     1.0000   1.0000   0.0000   0.0000   0.0000   0.0000   0.0000   0.0000
     0.0000   0.0000

          k = 0.0000-0.2309 0.0000 ( 10237 PWs)   bands (ev):

   -61.5527 -61.5527 -37.3754 -37.3754 -34.9372 -34.9372 -34.8087 -34.8087
   -14.5151 -14.5151 -13.5043 -13.5043  -6.1115  -6.1115  -4.5084  -4.5084
    -4.1551  -4.1551  -3.1052  -3.1052  -2.8924  -2.8924  -2.0344  -2.0344
    -1.3798  -1.3798   1.3606   1.3606   1.7520   1.7520   1.8963   1.8963
     2.8222   2.8222

     occupation numbers 
     1.0000   1.0000   1.0000   1.0000   1.0000   1.0000   1.0000   1.0000
     1.0000   1.0000   1.0000   1.0000   1.0000   1.0000   1.0000   1.0000
     1.0000   1.0000   1.0000   1.0000   1.0000   1.0000   1.0000   1.0000
     1.0000   1.0000   0.0000   0.0000   0.0000   0.0000   0.0000   0.0000
     0.0000   0.0000

          k = 0.0000-0.1155 0.0000 ( 10233 PWs)   bands (ev):

   -61.5642 -61.5642 -37.3451 -37.3451 -34.9146 -34.9146 -34.7478 -34.7478
   -14.9522 -14.9522 -13.6830 -13.6830  -6.4952  -6.4952  -3.8385  -3.8385
    -3.3605  -3.3605  -3.3147  -3.3147  -2.5818  -2.5818  -1.9825  -1.9825
    -1.0249  -1.0249   1.8129   1.8129   1.8788   1.8788   2.1123   2.1123
     2.2877   2.2877

     occupation numbers 
     1.0000   1.0000   1.0000   1.0000   1.0000   1.0000   1.0000   1.0000
     1.0000   1.0000   1.0000   1.0000   1.0000   1.0000   1.0000   1.0000
     1.0000   1.0000   1.0000   1.0000   1.0000   1.0000   1.0000   1.0000
     1.0000   1.0000   0.0000   0.0000   0.0000   0.0000   0.0000   0.0000
     0.0000   0.0000

          k = 0.1000-0.0577 0.0000 ( 10233 PWs)   bands (ev):

   -61.5642 -61.5642 -37.3451 -37.3451 -34.9146 -34.9146 -34.7478 -34.7478
   -14.9522 -14.9522 -13.6830 -13.6830  -6.4952  -6.4952  -3.8385  -3.8385
    -3.3605  -3.3605  -3.3147  -3.3147  -2.5818  -2.5818  -1.9825  -1.9825
    -1.0249  -1.0249   1.8129   1.8129   1.8788   1.8788   2.1123   2.1123
     2.2877   2.2877

     occupation numbers 
     1.0000   1.0000   1.0000   1.0000   1.0000   1.0000   1.0000   1.0000
     1.0000   1.0000   1.0000   1.0000   1.0000   1.0000   1.0000   1.0000
     1.0000   1.0000   1.0000   1.0000   1.0000   1.0000   1.0000   1.0000
     1.0000   1.0000   0.0000   0.0000   0.0000   0.0000   0.0000   0.0000
     0.0000   0.0000

          k = 0.1000 0.0577 0.0000 ( 10233 PWs)   bands (ev):

   -61.5642 -61.5642 -37.3451 -37.3451 -34.9146 -34.9146 -34.7478 -34.7478
   -14.9522 -14.9522 -13.6830 -13.6830  -6.4952  -6.4952  -3.8385  -3.8385
    -3.3605  -3.3605  -3.3147  -3.3147  -2.5818  -2.5818  -1.9825  -1.9825
    -1.0249  -1.0249   1.8129   1.8129   1.8788   1.8788   2.1123   2.1123
     2.2877   2.2877

     occupation numbers 
     1.0000   1.0000   1.0000   1.0000   1.0000   1.0000   1.0000   1.0000
     1.0000   1.0000   1.0000   1.0000   1.0000   1.0000   1.0000   1.0000
     1.0000   1.0000   1.0000   1.0000   1.0000   1.0000   1.0000   1.0000
     1.0000   1.0000   0.0000   0.0000   0.0000   0.0000   0.0000   0.0000
     0.0000   0.0000

          k = 0.1000 0.1732 0.0000 ( 10235 PWs)   bands (ev):

   -61.5563 -61.5563 -37.3670 -37.3647 -34.9283 -34.9268 -34.7955 -34.7907
   -14.6565 -14.6527 -13.5611 -13.5608  -6.2060  -6.2003  -4.3314  -4.3202
    -3.8577  -3.8529  -3.1689  -3.1639  -3.0681  -3.0379  -1.8093  -1.7789
    -1.2440  -1.2332   1.4342   1.4377   1.6521   1.7049   1.8216   1.8508
     2.7282   2.7783

     occupation numbers 
     1.0000   1.0000   1.0000   1.0000   1.0000   1.0000   1.0000   1.0000
     1.0000   1.0000   1.0000   1.0000   1.0000   1.0000   1.0000   1.0000
     1.0000   1.0000   1.0000   1.0000   1.0000   1.0000   1.0000   1.0000
     1.0000   1.0000   0.0000   0.0000   0.0000   0.0000   0.0000   0.0000
     0.0000   0.0000

          k = 0.1000 0.2887 0.0000 ( 10226 PWs)   bands (ev):

   -61.5435 -61.5435 -37.4039 -37.3978 -34.9648 -34.9643 -34.8510 -34.8427
   -14.1342 -14.1230 -13.3464 -13.3454  -5.9765  -5.9584  -4.7572  -4.7523
    -4.5525  -4.5380  -3.8370  -3.8250  -2.7587  -2.6951  -1.9738  -1.9425
    -1.6858  -1.6332   1.1326   1.1806   1.6550   1.6697   1.8915   1.9501
     3.2767   3.3190

     occupation numbers 
     1.0000   1.0000   1.0000   1.0000   1.0000   1.0000   1.0000   1.0000
     1.0000   1.0000   1.0000   1.0000   1.0000   1.0000   1.0000   1.0000
     1.0000   1.0000   1.0000   1.0000   1.0000   1.0000   1.0000   1.0000
     1.0000   1.0000   0.0000   0.0000   0.0000   0.0000   0.0000   0.0000
     0.0000   0.0000

          k = 0.1000 0.4041 0.0000 ( 10201 PWs)   bands (ev):

   -61.5306 -61.5306 -37.4428 -37.4328 -35.0293 -35.0203 -34.8756 -34.8704
   -13.5342 -13.5132 -13.1037 -13.1019  -6.2895  -6.2828  -5.3687  -5.3588
    -4.7827  -4.7790  -4.0859  -4.0744  -2.7105  -2.6322  -2.4066  -2.3863
    -1.7032  -1.6136   1.2658   1.3226   1.7665   1.7725   2.4580   2.4945
     3.5462   3.5700

     occupation numbers 
     1.0000   1.0000   1.0000   1.0000   1.0000   1.0000   1.0000   1.0000
     1.0000   1.0000   1.0000   1.0000   1.0000   1.0000   1.0000   1.0000
     1.0000   1.0000   1.0000   1.0000   1.0000   1.0000   1.0000   1.0000
     1.0000   1.0000   0.0000   0.0000   0.0000   0.0000   0.0000   0.0000
     0.0000   0.0000

          k = 0.1000-0.6351 0.0000 ( 10190 PWs)   bands (ev):

   -61.5226 -61.5226 -37.4678 -37.4553 -35.0756 -35.0608 -34.8824 -34.8796
   -13.1040 -13.0745 -12.9352 -12.9329  -6.6451  -6.6316  -5.8855  -5.8793
    -4.9667  -4.9577  -4.1210  -4.1102  -2.7447  -2.7437  -2.5593  -2.4909
    -1.4097  -1.3037   1.4952   1.5342   1.9895   2.0934   2.9769   2.9920
     3.4392   3.4418

     occupation numbers 
     1.0000   1.0000   1.0000   1.0000   1.0000   1.0000   1.0000   1.0000
     1.0000   1.0000   1.0000   1.0000   1.0000   1.0000   1.0000   1.0000
     1.0000   1.0000   1.0000   1.0000   1.0000   1.0000   1.0000   1.0000
     1.0000   1.0000   0.0000   0.0000   0.0000   0.0000   0.0000   0.0000
     0.0000   0.0000

          k = 0.1000-0.5196 0.0000 ( 10190 PWs)   bands (ev):

   -61.5226 -61.5226 -37.4678 -37.4553 -35.0756 -35.0608 -34.8824 -34.8796
   -13.1040 -13.0745 -12.9352 -12.9329  -6.6451  -6.6316  -5.8855  -5.8793
    -4.9667  -4.9577  -4.1210  -4.1102  -2.7447  -2.7437  -2.5593  -2.4909
    -1.4097  -1.3037   1.4952   1.5342   1.9895   2.0934   2.9769   2.9920
     3.4392   3.4418

     occupation numbers 
     1.0000   1.0000   1.0000   1.0000   1.0000   1.0000   1.0000   1.0000
     1.0000   1.0000   1.0000   1.0000   1.0000   1.0000   1.0000   1.0000
     1.0000   1.0000   1.0000   1.0000   1.0000   1.0000   1.0000   1.0000
     1.0000   1.0000   0.0000   0.0000   0.0000   0.0000   0.0000   0.0000
     0.0000   0.0000

          k = 0.1000-0.4041 0.0000 ( 10201 PWs)   bands (ev):

   -61.5306 -61.5306 -37.4428 -37.4328 -35.0293 -35.0203 -34.8756 -34.8704
   -13.5342 -13.5132 -13.1037 -13.1019  -6.2895  -6.2828  -5.3687  -5.3588
    -4.7827  -4.7790  -4.0859  -4.0744  -2.7105  -2.6322  -2.4066  -2.3863
    -1.7032  -1.6136   1.2658   1.3226   1.7665   1.7725   2.4580   2.4945
     3.5462   3.5700

     occupation numbers 
     1.0000   1.0000   1.0000   1.0000   1.0000   1.0000   1.0000   1.0000
     1.0000   1.0000   1.0000   1.0000   1.0000   1.0000   1.0000   1.0000
     1.0000   1.0000   1.0000   1.0000   1.0000   1.0000   1.0000   1.0000
     1.0000   1.0000   0.0000   0.0000   0.0000   0.0000   0.0000   0.0000
     0.0000   0.0000

          k = 0.1000-0.2887 0.0000 ( 10226 PWs)   bands (ev):

   -61.5435 -61.5435 -37.4039 -37.3978 -34.9648 -34.9643 -34.8510 -34.8427
   -14.1342 -14.1230 -13.3464 -13.3454  -5.9765  -5.9584  -4.7572  -4.7523
    -4.5525  -4.5380  -3.8370  -3.8250  -2.7587  -2.6951  -1.9738  -1.9425
    -1.6858  -1.6332   1.1326   1.1806   1.6550   1.6697   1.8915   1.9501
     3.2767   3.3190

     occupation numbers 
     1.0000   1.0000   1.0000   1.0000   1.0000   1.0000   1.0000   1.0000
     1.0000   1.0000   1.0000   1.0000   1.0000   1.0000   1.0000   1.0000
     1.0000   1.0000   1.0000   1.0000   1.0000   1.0000   1.0000   1.0000
     1.0000   1.0000   0.0000   0.0000   0.0000   0.0000   0.0000   0.0000
     0.0000   0.0000

          k = 0.1000-0.1732 0.0000 ( 10235 PWs)   bands (ev):

   -61.5563 -61.5563 -37.3670 -37.3647 -34.9283 -34.9268 -34.7955 -34.7907
   -14.6565 -14.6527 -13.5611 -13.5608  -6.2060  -6.2003  -4.3314  -4.3202
    -3.8577  -3.8529  -3.1689  -3.1639  -3.0681  -3.0379  -1.8093  -1.7789
    -1.2440  -1.2332   1.4342   1.4377   1.6521   1.7049   1.8216   1.8508
     2.7282   2.7783

     occupation numbers 
     1.0000   1.0000   1.0000   1.0000   1.0000   1.0000   1.0000   1.0000
     1.0000   1.0000   1.0000   1.0000   1.0000   1.0000   1.0000   1.0000
     1.0000   1.0000   1.0000   1.0000   1.0000   1.0000   1.0000   1.0000
     1.0000   1.0000   0.0000   0.0000   0.0000   0.0000   0.0000   0.0000
     0.0000   0.0000

          k = 0.2000-0.1155 0.0000 ( 10237 PWs)   bands (ev):

   -61.5527 -61.5527 -37.3754 -37.3754 -34.9372 -34.9372 -34.8087 -34.8087
   -14.5151 -14.5151 -13.5043 -13.5043  -6.1115  -6.1115  -4.5084  -4.5084
    -4.1551  -4.1551  -3.1052  -3.1052  -2.8924  -2.8924  -2.0344  -2.0344
    -1.3798  -1.3798   1.3606   1.3606   1.7520   1.7520   1.8963   1.8963
     2.8222   2.8222

     occupation numbers 
     1.0000   1.0000   1.0000   1.0000   1.0000   1.0000   1.0000   1.0000
     1.0000   1.0000   1.0000   1.0000   1.0000   1.0000   1.0000   1.0000
     1.0000   1.0000   1.0000   1.0000   1.0000   1.0000   1.0000   1.0000
     1.0000   1.0000   0.0000   0.0000   0.0000   0.0000   0.0000   0.0000
     0.0000   0.0000

          k = 0.2000 0.0000 0.0000 ( 10235 PWs)   bands (ev):

   -61.5563 -61.5563 -37.3670 -37.3647 -34.9283 -34.9268 -34.7955 -34.7907
   -14.6565 -14.6527 -13.5611 -13.5608  -6.2060  -6.2003  -4.3314  -4.3202
    -3.8577  -3.8529  -3.1689  -3.1639  -3.0681  -3.0379  -1.8093  -1.7789
    -1.2440  -1.2332   1.4342   1.4377   1.6521   1.7049   1.8216   1.8508
     2.7282   2.7783

     occupation numbers 
     1.0000   1.0000   1.0000   1.0000   1.0000   1.0000   1.0000   1.0000
     1.0000   1.0000   1.0000   1.0000   1.0000   1.0000   1.0000   1.0000
     1.0000   1.0000   1.0000   1.0000   1.0000   1.0000   1.0000   1.0000
     1.0000   1.0000   0.0000   0.0000   0.0000   0.0000   0.0000   0.0000
     0.0000   0.0000

          k = 0.2000 0.1155 0.0000 ( 10237 PWs)   bands (ev):

   -61.5527 -61.5527 -37.3754 -37.3754 -34.9372 -34.9372 -34.8087 -34.8087
   -14.5151 -14.5151 -13.5043 -13.5043  -6.1115  -6.1115  -4.5084  -4.5084
    -4.1551  -4.1551  -3.1052  -3.1052  -2.8924  -2.8924  -2.0344  -2.0344
    -1.3798  -1.3798   1.3606   1.3606   1.7520   1.7520   1.8963   1.8963
     2.8222   2.8222

     occupation numbers 
     1.0000   1.0000   1.0000   1.0000   1.0000   1.0000   1.0000   1.0000
     1.0000   1.0000   1.0000   1.0000   1.0000   1.0000   1.0000   1.0000
     1.0000   1.0000   1.0000   1.0000   1.0000   1.0000   1.0000   1.0000
     1.0000   1.0000   0.0000   0.0000   0.0000   0.0000   0.0000   0.0000
     0.0000   0.0000

          k = 0.2000 0.2309 0.0000 ( 10226 PWs)   bands (ev):

   -61.5435 -61.5435 -37.4039 -37.3978 -34.9648 -34.9643 -34.8510 -34.8427
   -14.1342 -14.1230 -13.3464 -13.3454  -5.9765  -5.9584  -4.7572  -4.7523
    -4.5525  -4.5380  -3.8370  -3.8250  -2.7587  -2.6951  -1.9738  -1.9425
    -1.6858  -1.6332   1.1326   1.1806   1.6550   1.6697   1.8915   1.9501
     3.2767   3.3190

     occupation numbers 
     1.0000   1.0000   1.0000   1.0000   1.0000   1.0000   1.0000   1.0000
     1.0000   1.0000   1.0000   1.0000   1.0000   1.0000   1.0000   1.0000
     1.0000   1.0000   1.0000   1.0000   1.0000   1.0000   1.0000   1.0000
     1.0000   1.0000   0.0000   0.0000   0.0000   0.0000   0.0000   0.0000
     0.0000   0.0000

          k = 0.2000 0.3464 0.0000 ( 10186 PWs)   bands (ev):

   -61.5319 -61.5319 -37.4397 -37.4259 -35.0111 -34.9991 -34.8894 -34.8817
   -13.6113 -13.5830 -13.1263 -13.1238  -6.0838  -6.0632  -5.2192  -5.1995
    -4.6417  -4.6269  -4.3124  -4.2880  -3.2014  -3.1237  -2.1198  -2.0943
    -1.7014  -1.6080   1.1217   1.1961   1.8225   1.8264   2.0599   2.0951
     3.6861   3.7009

     occupation numbers 
     1.0000   1.0000   1.0000   1.0000   1.0000   1.0000   1.0000   1.0000
     1.0000   1.0000   1.0000   1.0000   1.0000   1.0000   1.0000   1.0000
     1.0000   1.0000   1.0000   1.0000   1.0000   1.0000   1.0000   1.0000
     1.0000   1.0000   0.0000   0.0000   0.0000   0.0000   0.0000   0.0000
     0.0000   0.0000

          k = 0.2000-0.6928 0.0000 ( 10177 PWs)   bands (ev):

   -61.5226 -61.5226 -37.4692 -37.4490 -35.0582 -35.0303 -34.9097 -34.9090
   -13.1305 -13.0836 -12.9210 -12.9171  -6.2407  -6.2330  -5.9555  -5.9451
    -4.6599  -4.6577  -4.2060  -4.1866  -3.6351  -3.5736  -2.5708  -2.5606
    -1.4375  -1.3287   1.4055   1.4171   2.0490   2.1551   2.3611   2.3698
     3.8256   3.8615

     occupation numbers 
     1.0000   1.0000   1.0000   1.0000   1.0000   1.0000   1.0000   1.0000
     1.0000   1.0000   1.0000   1.0000   1.0000   1.0000   1.0000   1.0000
     1.0000   1.0000   1.0000   1.0000   1.0000   1.0000   1.0000   1.0000
     1.0000   1.0000   0.0000   0.0000   0.0000   0.0000   0.0000   0.0000
     0.0000   0.0000

          k = 0.2000-0.5774 0.0000 ( 10166 PWs)   bands (ev):

   -61.5190 -61.5190 -37.4806 -37.4578 -35.0778 -35.0432 -34.9182 -34.9156
   -12.9281 -12.8725 -12.8342 -12.8302  -6.2905  -6.2564  -6.2378  -6.2331
    -4.8968  -4.8863  -4.0592  -4.0384  -3.6654  -3.6133  -2.8526  -2.8519
    -1.1830  -1.0620   1.2809   1.3168   2.3746   2.4611   2.5171   2.5498
     3.8351   3.8973

     occupation numbers 
     1.0000   1.0000   1.0000   1.0000   1.0000   1.0000   1.0000   1.0000
     1.0000   1.0000   1.0000   1.0000   1.0000   1.0000   1.0000   1.0000
     1.0000   1.0000   1.0000   1.0000   1.0000   1.0000   1.0000   1.0000
     1.0000   1.0000   0.0000   0.0000   0.0000   0.0000   0.0000   0.0000
     0.0000   0.0000

          k = 0.2000-0.4619 0.0000 ( 10177 PWs)   bands (ev):

   -61.5226 -61.5226 -37.4692 -37.4490 -35.0582 -35.0303 -34.9097 -34.9090
   -13.1305 -13.0836 -12.9210 -12.9171  -6.2407  -6.2330  -5.9555  -5.9451
    -4.6599  -4.6577  -4.2060  -4.1866  -3.6351  -3.5736  -2.5708  -2.5606
    -1.4375  -1.3287   1.4055   1.4171   2.0490   2.1551   2.3611   2.3698
     3.8256   3.8615

     occupation numbers 
     1.0000   1.0000   1.0000   1.0000   1.0000   1.0000   1.0000   1.0000
     1.0000   1.0000   1.0000   1.0000   1.0000   1.0000   1.0000   1.0000
     1.0000   1.0000   1.0000   1.0000   1.0000   1.0000   1.0000   1.0000
     1.0000   1.0000   0.0000   0.0000   0.0000   0.0000   0.0000   0.0000
     0.0000   0.0000

          k = 0.2000-0.3464 0.0000 ( 10186 PWs)   bands (ev):

   -61.5319 -61.5319 -37.4397 -37.4259 -35.0111 -34.9991 -34.8894 -34.8817
   -13.6113 -13.5830 -13.1263 -13.1238  -6.0838  -6.0632  -5.2192  -5.1995
    -4.6417  -4.6269  -4.3124  -4.2880  -3.2014  -3.1237  -2.1198  -2.0943
    -1.7014  -1.6080   1.1217   1.1961   1.8225   1.8264   2.0599   2.0951
     3.6861   3.7009

     occupation numbers 
     1.0000   1.0000   1.0000   1.0000   1.0000   1.0000   1.0000   1.0000
     1.0000   1.0000   1.0000   1.0000   1.0000   1.0000   1.0000   1.0000
     1.0000   1.0000   1.0000   1.0000   1.0000   1.0000   1.0000   1.0000
     1.0000   1.0000   0.0000   0.0000   0.0000   0.0000   0.0000   0.0000
     0.0000   0.0000

          k = 0.2000-0.2309 0.0000 ( 10226 PWs)   bands (ev):

   -61.5435 -61.5435 -37.4039 -37.3978 -34.9648 -34.9643 -34.8510 -34.8427
   -14.1342 -14.1230 -13.3464 -13.3454  -5.9765  -5.9584  -4.7572  -4.7523
    -4.5525  -4.5380  -3.8370  -3.8250  -2.7587  -2.6951  -1.9738  -1.9425
    -1.6858  -1.6332   1.1326   1.1806   1.6550   1.6697   1.8915   1.9501
     3.2767   3.3190

     occupation numbers 
     1.0000   1.0000   1.0000   1.0000   1.0000   1.0000   1.0000   1.0000
     1.0000   1.0000   1.0000   1.0000   1.0000   1.0000   1.0000   1.0000
     1.0000   1.0000   1.0000   1.0000   1.0000   1.0000   1.0000   1.0000
     1.0000   1.0000   0.0000   0.0000   0.0000   0.0000   0.0000   0.0000
     0.0000   0.0000

          k = 0.3000-0.1732 0.0000 ( 10231 PWs)   bands (ev):

   -61.5385 -61.5385 -37.4153 -37.4153 -34.9932 -34.9932 -34.8507 -34.8507
   -13.9068 -13.9068 -13.2595 -13.2595  -6.1275  -6.1275  -4.9615  -4.9615
    -4.8198  -4.8198  -3.6147  -3.6147  -2.4404  -2.4404  -2.3260  -2.3260
    -1.8614  -1.8614   1.3966   1.3966   1.5056   1.5056   2.4323   2.4323
     3.2786   3.2786

     occupation numbers 
     1.0000   1.0000   1.0000   1.0000   1.0000   1.0000   1.0000   1.0000
     1.0000   1.0000   1.0000   1.0000   1.0000   1.0000   1.0000   1.0000
     1.0000   1.0000   1.0000   1.0000   1.0000   1.0000   1.0000   1.0000
     1.0000   1.0000   0.0000   0.0000   0.0000   0.0000   0.0000   0.0000
     0.0000   0.0000

          k = 0.3000-0.0577 0.0000 ( 10226 PWs)   bands (ev):

   -61.5435 -61.5435 -37.4039 -37.3978 -34.9648 -34.9643 -34.8510 -34.8427
   -14.1342 -14.1230 -13.3464 -13.3454  -5.9765  -5.9584  -4.7572  -4.7523
    -4.5525  -4.5380  -3.8370  -3.8250  -2.7587  -2.6951  -1.9738  -1.9425
    -1.6858  -1.6332   1.1326   1.1806   1.6550   1.6697   1.8915   1.9501
     3.2767   3.3190

     occupation numbers 
     1.0000   1.0000   1.0000   1.0000   1.0000   1.0000   1.0000   1.0000
     1.0000   1.0000   1.0000   1.0000   1.0000   1.0000   1.0000   1.0000
     1.0000   1.0000   1.0000   1.0000   1.0000   1.0000   1.0000   1.0000
     1.0000   1.0000   0.0000   0.0000   0.0000   0.0000   0.0000   0.0000
     0.0000   0.0000

          k = 0.3000 0.0577 0.0000 ( 10226 PWs)   bands (ev):

   -61.5435 -61.5435 -37.4039 -37.3978 -34.9648 -34.9643 -34.8510 -34.8427
   -14.1342 -14.1230 -13.3464 -13.3454  -5.9765  -5.9584  -4.7572  -4.7523
    -4.5525  -4.5380  -3.8370  -3.8250  -2.7587  -2.6951  -1.9738  -1.9425
    -1.6858  -1.6332   1.1326   1.1806   1.6550   1.6697   1.8915   1.9501
     3.2767   3.3190

     occupation numbers 
     1.0000   1.0000   1.0000   1.0000   1.0000   1.0000   1.0000   1.0000
     1.0000   1.0000   1.0000   1.0000   1.0000   1.0000   1.0000   1.0000
     1.0000   1.0000   1.0000   1.0000   1.0000   1.0000   1.0000   1.0000
     1.0000   1.0000   0.0000   0.0000   0.0000   0.0000   0.0000   0.0000
     0.0000   0.0000

          k = 0.3000 0.1732 0.0000 ( 10231 PWs)   bands (ev):

   -61.5385 -61.5385 -37.4153 -37.4153 -34.9932 -34.9932 -34.8507 -34.8507
   -13.9068 -13.9068 -13.2595 -13.2595  -6.1275  -6.1275  -4.9615  -4.9615
    -4.8198  -4.8198  -3.6147  -3.6147  -2.4404  -2.4404  -2.3260  -2.3260
    -1.8614  -1.8614   1.3966   1.3966   1.5056   1.5056   2.4323   2.4323
     3.2786   3.2786

     occupation numbers 
     1.0000   1.0000   1.0000   1.0000   1.0000   1.0000   1.0000   1.0000
     1.0000   1.0000   1.0000   1.0000   1.0000   1.0000   1.0000   1.0000
     1.0000   1.0000   1.0000   1.0000   1.0000   1.0000   1.0000   1.0000
     1.0000   1.0000   0.0000   0.0000   0.0000   0.0000   0.0000   0.0000
     0.0000   0.0000

          k = 0.3000 0.2887 0.0000 ( 10201 PWs)   bands (ev):

   -61.5306 -61.5306 -37.4428 -37.4328 -35.0293 -35.0203 -34.8756 -34.8704
   -13.5342 -13.5132 -13.1037 -13.1019  -6.2895  -6.2828  -5.3687  -5.3588
    -4.7827  -4.7790  -4.0859  -4.0744  -2.7105  -2.6322  -2.4066  -2.3863
    -1.7032  -1.6136   1.2658   1.3226   1.7665   1.7725   2.4580   2.4945
     3.5462   3.5700

     occupation numbers 
     1.0000   1.0000   1.0000   1.0000   1.0000   1.0000   1.0000   1.0000
     1.0000   1.0000   1.0000   1.0000   1.0000   1.0000   1.0000   1.0000
     1.0000   1.0000   1.0000   1.0000   1.0000   1.0000   1.0000   1.0000
     1.0000   1.0000   0.0000   0.0000   0.0000   0.0000   0.0000   0.0000
     0.0000   0.0000

          k = 0.3000-0.7506 0.0000 ( 10177 PWs)   bands (ev):

   -61.5226 -61.5226 -37.4692 -37.4490 -35.0582 -35.0303 -34.9097 -34.9090
   -13.1305 -13.0836 -12.9210 -12.9171  -6.2407  -6.2330  -5.9555  -5.9451
    -4.6599  -4.6577  -4.2060  -4.1866  -3.6351  -3.5736  -2.5708  -2.5606
    -1.4375  -1.3287   1.4055   1.4171   2.0490   2.1551   2.3611   2.3698
     3.8256   3.8615

     occupation numbers 
     1.0000   1.0000   1.0000   1.0000   1.0000   1.0000   1.0000   1.0000
     1.0000   1.0000   1.0000   1.0000   1.0000   1.0000   1.0000   1.0000
     1.0000   1.0000   1.0000   1.0000   1.0000   1.0000   1.0000   1.0000
     1.0000   1.0000   0.0000   0.0000   0.0000   0.0000   0.0000   0.0000
     0.0000   0.0000

          k = 0.3000-0.6351 0.0000 ( 10164 PWs)   bands (ev):

   -61.5177 -61.5177 -37.4850 -37.4583 -35.0739 -35.0236 -34.9467 -34.9338
   -12.8637 -12.7979 -12.7900 -12.7856  -6.4049  -6.3974  -5.8787  -5.8480
    -4.8341  -4.7861  -4.3950  -4.3950  -3.9558  -3.9151  -2.9636  -2.9521
    -1.0654  -0.9321   1.0642   1.0750   2.1954   2.2231   2.6242   2.7618
     4.1353   4.2129

     occupation numbers 
     1.0000   1.0000   1.0000   1.0000   1.0000   1.0000   1.0000   1.0000
     1.0000   1.0000   1.0000   1.0000   1.0000   1.0000   1.0000   1.0000
     1.0000   1.0000   1.0000   1.0000   1.0000   1.0000   1.0000   1.0000
     1.0000   1.0000   0.0000   0.0000   0.0000   0.0000   0.0000   0.0000
     0.0000   0.0000

          k = 0.3000-0.5196 0.0000 ( 10164 PWs)   bands (ev):

   -61.5177 -61.5177 -37.4850 -37.4583 -35.0739 -35.0236 -34.9467 -34.9338
   -12.8637 -12.7979 -12.7900 -12.7856  -6.4049  -6.3974  -5.8787  -5.8480
    -4.8341  -4.7861  -4.3950  -4.3950  -3.9558  -3.9151  -2.9636  -2.9521
    -1.0654  -0.9321   1.0642   1.0750   2.1954   2.2231   2.6242   2.7618
     4.1353   4.2129

     occupation numbers 
     1.0000   1.0000   1.0000   1.0000   1.0000   1.0000   1.0000   1.0000
     1.0000   1.0000   1.0000   1.0000   1.0000   1.0000   1.0000   1.0000
     1.0000   1.0000   1.0000   1.0000   1.0000   1.0000   1.0000   1.0000
     1.0000   1.0000   0.0000   0.0000   0.0000   0.0000   0.0000   0.0000
     0.0000   0.0000

          k = 0.3000-0.4041 0.0000 ( 10177 PWs)   bands (ev):

   -61.5226 -61.5226 -37.4692 -37.4490 -35.0582 -35.0303 -34.9097 -34.9090
   -13.1305 -13.0836 -12.9210 -12.9171  -6.2407  -6.2330  -5.9555  -5.9451
    -4.6599  -4.6577  -4.2060  -4.1866  -3.6351  -3.5736  -2.5708  -2.5606
    -1.4375  -1.3287   1.4055   1.4171   2.0490   2.1551   2.3611   2.3698
     3.8256   3.8615

     occupation numbers 
     1.0000   1.0000   1.0000   1.0000   1.0000   1.0000   1.0000   1.0000
     1.0000   1.0000   1.0000   1.0000   1.0000   1.0000   1.0000   1.0000
     1.0000   1.0000   1.0000   1.0000   1.0000   1.0000   1.0000   1.0000
     1.0000   1.0000   0.0000   0.0000   0.0000   0.0000   0.0000   0.0000
     0.0000   0.0000

          k = 0.3000-0.2887 0.0000 ( 10201 PWs)   bands (ev):

   -61.5306 -61.5306 -37.4428 -37.4328 -35.0293 -35.0203 -34.8756 -34.8704
   -13.5342 -13.5132 -13.1037 -13.1019  -6.2895  -6.2828  -5.3687  -5.3588
    -4.7827  -4.7790  -4.0859  -4.0744  -2.7105  -2.6322  -2.4066  -2.3863
    -1.7032  -1.6136   1.2658   1.3226   1.7665   1.7725   2.4580   2.4945
     3.5462   3.5700

     occupation numbers 
     1.0000   1.0000   1.0000   1.0000   1.0000   1.0000   1.0000   1.0000
     1.0000   1.0000   1.0000   1.0000   1.0000   1.0000   1.0000   1.0000
     1.0000   1.0000   1.0000   1.0000   1.0000   1.0000   1.0000   1.0000
     1.0000   1.0000   0.0000   0.0000   0.0000   0.0000   0.0000   0.0000
     0.0000   0.0000

          k = 0.4000-0.2309 0.0000 ( 10187 PWs)   bands (ev):

   -61.5270 -61.5270 -37.4495 -37.4495 -35.0548 -35.0548 -34.8640 -34.8640
   -13.3295 -13.3295 -13.0361 -13.0361  -6.6032  -6.6032  -5.5913  -5.5913
    -4.9377  -4.9377  -3.9625  -3.9625  -2.7202  -2.7202  -1.9221  -1.9221
    -1.7630  -1.7630   1.4645   1.4645   1.7827   1.7827   2.9206   2.9206
     3.5260   3.5260

     occupation numbers 
     1.0000   1.0000   1.0000   1.0000   1.0000   1.0000   1.0000   1.0000
     1.0000   1.0000   1.0000   1.0000   1.0000   1.0000   1.0000   1.0000
     1.0000   1.0000   1.0000   1.0000   1.0000   1.0000   1.0000   1.0000
     1.0000   1.0000   0.0000   0.0000   0.0000   0.0000   0.0000   0.0000
     0.0000   0.0000

          k = 0.4000-0.1155 0.0000 ( 10201 PWs)   bands (ev):

   -61.5306 -61.5306 -37.4428 -37.4328 -35.0293 -35.0203 -34.8756 -34.8704
   -13.5342 -13.5132 -13.1037 -13.1019  -6.2895  -6.2828  -5.3687  -5.3588
    -4.7827  -4.7790  -4.0859  -4.0744  -2.7105  -2.6322  -2.4066  -2.3863
    -1.7032  -1.6136   1.2658   1.3226   1.7665   1.7725   2.4580   2.4945
     3.5462   3.5700

     occupation numbers 
     1.0000   1.0000   1.0000   1.0000   1.0000   1.0000   1.0000   1.0000
     1.0000   1.0000   1.0000   1.0000   1.0000   1.0000   1.0000   1.0000
     1.0000   1.0000   1.0000   1.0000   1.0000   1.0000   1.0000   1.0000
     1.0000   1.0000   0.0000   0.0000   0.0000   0.0000   0.0000   0.0000
     0.0000   0.0000

          k = 0.4000 0.0000 0.0000 ( 10186 PWs)   bands (ev):

   -61.5319 -61.5319 -37.4397 -37.4259 -35.0111 -34.9991 -34.8894 -34.8817
   -13.6113 -13.5830 -13.1263 -13.1238  -6.0838  -6.0632  -5.2192  -5.1995
    -4.6417  -4.6269  -4.3124  -4.2880  -3.2014  -3.1237  -2.1198  -2.0943
    -1.7014  -1.6080   1.1217   1.1961   1.8225   1.8264   2.0599   2.0951
     3.6861   3.7009

     occupation numbers 
     1.0000   1.0000   1.0000   1.0000   1.0000   1.0000   1.0000   1.0000
     1.0000   1.0000   1.0000   1.0000   1.0000   1.0000   1.0000   1.0000
     1.0000   1.0000   1.0000   1.0000   1.0000   1.0000   1.0000   1.0000
     1.0000   1.0000   0.0000   0.0000   0.0000   0.0000   0.0000   0.0000
     0.0000   0.0000

          k = 0.4000 0.1155 0.0000 ( 10201 PWs)   bands (ev):

   -61.5306 -61.5306 -37.4428 -37.4328 -35.0293 -35.0203 -34.8756 -34.8704
   -13.5342 -13.5132 -13.1037 -13.1019  -6.2895  -6.2828  -5.3687  -5.3588
    -4.7827  -4.7790  -4.0859  -4.0744  -2.7105  -2.6322  -2.4066  -2.3863
    -1.7032  -1.6136   1.2658   1.3226   1.7665   1.7725   2.4580   2.4945
     3.5462   3.5700

     occupation numbers 
     1.0000   1.0000   1.0000   1.0000   1.0000   1.0000   1.0000   1.0000
     1.0000   1.0000   1.0000   1.0000   1.0000   1.0000   1.0000   1.0000
     1.0000   1.0000   1.0000   1.0000   1.0000   1.0000   1.0000   1.0000
     1.0000   1.0000   0.0000   0.0000   0.0000   0.0000   0.0000   0.0000
     0.0000   0.0000

          k = 0.4000 0.2309 0.0000 ( 10187 PWs)   bands (ev):

   -61.5270 -61.5270 -37.4495 -37.4495 -35.0548 -35.0548 -34.8640 -34.8640
   -13.3295 -13.3295 -13.0361 -13.0361  -6.6032  -6.6032  -5.5913  -5.5913
    -4.9377  -4.9377  -3.9625  -3.9625  -2.7202  -2.7202  -1.9221  -1.9221
    -1.7630  -1.7630   1.4645   1.4645   1.7827   1.7827   2.9206   2.9206
     3.5260   3.5260

     occupation numbers 
     1.0000   1.0000   1.0000   1.0000   1.0000   1.0000   1.0000   1.0000
     1.0000   1.0000   1.0000   1.0000   1.0000   1.0000   1.0000   1.0000
     1.0000   1.0000   1.0000   1.0000   1.0000   1.0000   1.0000   1.0000
     1.0000   1.0000   0.0000   0.0000   0.0000   0.0000   0.0000   0.0000
     0.0000   0.0000

          k = 0.4000-0.8083 0.0000 ( 10190 PWs)   bands (ev):

   -61.5226 -61.5226 -37.4678 -37.4553 -35.0756 -35.0608 -34.8824 -34.8796
   -13.1040 -13.0745 -12.9352 -12.9329  -6.6451  -6.6316  -5.8855  -5.8793
    -4.9667  -4.9577  -4.1210  -4.1102  -2.7447  -2.7437  -2.5593  -2.4909
    -1.4097  -1.3037   1.4952   1.5342   1.9895   2.0934   2.9769   2.9920
     3.4392   3.4418

     occupation numbers 
     1.0000   1.0000   1.0000   1.0000   1.0000   1.0000   1.0000   1.0000
     1.0000   1.0000   1.0000   1.0000   1.0000   1.0000   1.0000   1.0000
     1.0000   1.0000   1.0000   1.0000   1.0000   1.0000   1.0000   1.0000
     1.0000   1.0000   0.0000   0.0000   0.0000   0.0000   0.0000   0.0000
     0.0000   0.0000

          k = 0.4000-0.6928 0.0000 ( 10166 PWs)   bands (ev):

   -61.5190 -61.5190 -37.4806 -37.4578 -35.0778 -35.0432 -34.9182 -34.9156
   -12.9281 -12.8725 -12.8342 -12.8302  -6.2905  -6.2564  -6.2378  -6.2331
    -4.8968  -4.8863  -4.0592  -4.0384  -3.6654  -3.6133  -2.8526  -2.8519
    -1.1830  -1.0620   1.2809   1.3168   2.3746   2.4611   2.5171   2.5498
     3.8351   3.8973

     occupation numbers 
     1.0000   1.0000   1.0000   1.0000   1.0000   1.0000   1.0000   1.0000
     1.0000   1.0000   1.0000   1.0000   1.0000   1.0000   1.0000   1.0000
     1.0000   1.0000   1.0000   1.0000   1.0000   1.0000   1.0000   1.0000
     1.0000   1.0000   0.0000   0.0000   0.0000   0.0000   0.0000   0.0000
     0.0000   0.0000

          k = 0.4000-0.5774 0.0000 ( 10164 PWs)   bands (ev):

   -61.5177 -61.5177 -37.4850 -37.4583 -35.0739 -35.0236 -34.9467 -34.9338
   -12.8637 -12.7979 -12.7900 -12.7856  -6.4049  -6.3974  -5.8787  -5.8480
    -4.8341  -4.7861  -4.3950  -4.3950  -3.9558  -3.9151  -2.9636  -2.9521
    -1.0654  -0.9321   1.0642   1.0750   2.1954   2.2231   2.6242   2.7618
     4.1353   4.2129

     occupation numbers 
     1.0000   1.0000   1.0000   1.0000   1.0000   1.0000   1.0000   1.0000
     1.0000   1.0000   1.0000   1.0000   1.0000   1.0000   1.0000   1.0000
     1.0000   1.0000   1.0000   1.0000   1.0000   1.0000   1.0000   1.0000
     1.0000   1.0000   0.0000   0.0000   0.0000   0.0000   0.0000   0.0000
     0.0000   0.0000

          k = 0.4000-0.4619 0.0000 ( 10166 PWs)   bands (ev):

   -61.5190 -61.5190 -37.4806 -37.4578 -35.0778 -35.0432 -34.9182 -34.9156
   -12.9281 -12.8725 -12.8342 -12.8302  -6.2905  -6.2564  -6.2378  -6.2331
    -4.8968  -4.8863  -4.0592  -4.0384  -3.6654  -3.6133  -2.8526  -2.8519
    -1.1830  -1.0620   1.2809   1.3168   2.3746   2.4611   2.5171   2.5498
     3.8351   3.8973

     occupation numbers 
     1.0000   1.0000   1.0000   1.0000   1.0000   1.0000   1.0000   1.0000
     1.0000   1.0000   1.0000   1.0000   1.0000   1.0000   1.0000   1.0000
     1.0000   1.0000   1.0000   1.0000   1.0000   1.0000   1.0000   1.0000
     1.0000   1.0000   0.0000   0.0000   0.0000   0.0000   0.0000   0.0000
     0.0000   0.0000

          k = 0.4000-0.3464 0.0000 ( 10190 PWs)   bands (ev):

   -61.5226 -61.5226 -37.4678 -37.4553 -35.0756 -35.0608 -34.8824 -34.8796
   -13.1040 -13.0745 -12.9352 -12.9329  -6.6451  -6.6316  -5.8855  -5.8793
    -4.9667  -4.9577  -4.1210  -4.1102  -2.7447  -2.7437  -2.5593  -2.4909
    -1.4097  -1.3037   1.4952   1.5342   1.9895   2.0934   2.9769   2.9920
     3.4392   3.4418

     occupation numbers 
     1.0000   1.0000   1.0000   1.0000   1.0000   1.0000   1.0000   1.0000
     1.0000   1.0000   1.0000   1.0000   1.0000   1.0000   1.0000   1.0000
     1.0000   1.0000   1.0000   1.0000   1.0000   1.0000   1.0000   1.0000
     1.0000   1.0000   0.0000   0.0000   0.0000   0.0000   0.0000   0.0000
     0.0000   0.0000

          k =-0.5000 0.2887 0.0000 ( 10206 PWs)   bands (ev):

   -61.5226 -61.5226 -37.4630 -37.4630 -35.0798 -35.0798 -34.8667 -34.8667
   -13.0780 -13.0780 -12.9433 -12.9433  -6.8420  -6.8420  -5.8361  -5.8361
    -5.0595  -5.0595  -4.0841  -4.0841  -2.8135  -2.8135  -1.7693  -1.7693
    -1.5319  -1.5319   1.5231   1.5231   2.0388   2.0388   3.0716   3.0716
     3.5978   3.5978

     occupation numbers 
     1.0000   1.0000   1.0000   1.0000   1.0000   1.0000   1.0000   1.0000
     1.0000   1.0000   1.0000   1.0000   1.0000   1.0000   1.0000   1.0000
     1.0000   1.0000   1.0000   1.0000   1.0000   1.0000   1.0000   1.0000
     1.0000   1.0000   0.0000   0.0000   0.0000   0.0000   0.0000   0.0000
     0.0000   0.0000

          k =-0.5000 0.4041 0.0000 ( 10190 PWs)   bands (ev):

   -61.5226 -61.5226 -37.4678 -37.4553 -35.0756 -35.0608 -34.8824 -34.8796
   -13.1040 -13.0745 -12.9352 -12.9329  -6.6451  -6.6316  -5.8855  -5.8793
    -4.9667  -4.9577  -4.1210  -4.1102  -2.7447  -2.7437  -2.5593  -2.4909
    -1.4097  -1.3037   1.4952   1.5342   1.9895   2.0934   2.9769   2.9920
     3.4392   3.4418

     occupation numbers 
     1.0000   1.0000   1.0000   1.0000   1.0000   1.0000   1.0000   1.0000
     1.0000   1.0000   1.0000   1.0000   1.0000   1.0000   1.0000   1.0000
     1.0000   1.0000   1.0000   1.0000   1.0000   1.0000   1.0000   1.0000
     1.0000   1.0000   0.0000   0.0000   0.0000   0.0000   0.0000   0.0000
     0.0000   0.0000

          k =-0.5000 0.5196 0.0000 ( 10177 PWs)   bands (ev):

   -61.5226 -61.5226 -37.4692 -37.4490 -35.0582 -35.0303 -34.9097 -34.9090
   -13.1305 -13.0836 -12.9210 -12.9171  -6.2407  -6.2330  -5.9555  -5.9451
    -4.6599  -4.6577  -4.2060  -4.1866  -3.6351  -3.5736  -2.5708  -2.5606
    -1.4375  -1.3287   1.4055   1.4171   2.0490   2.1551   2.3611   2.3698
     3.8256   3.8615

     occupation numbers 
     1.0000   1.0000   1.0000   1.0000   1.0000   1.0000   1.0000   1.0000
     1.0000   1.0000   1.0000   1.0000   1.0000   1.0000   1.0000   1.0000
     1.0000   1.0000   1.0000   1.0000   1.0000   1.0000   1.0000   1.0000
     1.0000   1.0000   0.0000   0.0000   0.0000   0.0000   0.0000   0.0000
     0.0000   0.0000

          k =-0.5000 0.6351 0.0000 ( 10177 PWs)   bands (ev):

   -61.5226 -61.5226 -37.4692 -37.4490 -35.0582 -35.0303 -34.9097 -34.9090
   -13.1305 -13.0836 -12.9210 -12.9171  -6.2407  -6.2330  -5.9555  -5.9451
    -4.6599  -4.6577  -4.2060  -4.1866  -3.6351  -3.5736  -2.5708  -2.5606
    -1.4375  -1.3287   1.4055   1.4171   2.0490   2.1551   2.3611   2.3698
     3.8256   3.8615

     occupation numbers 
     1.0000   1.0000   1.0000   1.0000   1.0000   1.0000   1.0000   1.0000
     1.0000   1.0000   1.0000   1.0000   1.0000   1.0000   1.0000   1.0000
     1.0000   1.0000   1.0000   1.0000   1.0000   1.0000   1.0000   1.0000
     1.0000   1.0000   0.0000   0.0000   0.0000   0.0000   0.0000   0.0000
     0.0000   0.0000

          k =-0.5000 0.7506 0.0000 ( 10190 PWs)   bands (ev):

   -61.5226 -61.5226 -37.4678 -37.4553 -35.0756 -35.0608 -34.8824 -34.8796
   -13.1040 -13.0745 -12.9352 -12.9329  -6.6451  -6.6316  -5.8855  -5.8793
    -4.9667  -4.9577  -4.1210  -4.1102  -2.7447  -2.7437  -2.5593  -2.4909
    -1.4097  -1.3037   1.4952   1.5342   1.9895   2.0934   2.9769   2.9920
     3.4392   3.4418

     occupation numbers 
     1.0000   1.0000   1.0000   1.0000   1.0000   1.0000   1.0000   1.0000
     1.0000   1.0000   1.0000   1.0000   1.0000   1.0000   1.0000   1.0000
     1.0000   1.0000   1.0000   1.0000   1.0000   1.0000   1.0000   1.0000
     1.0000   1.0000   0.0000   0.0000   0.0000   0.0000   0.0000   0.0000
     0.0000   0.0000

          k =-0.5000-0.2887 0.0000 ( 10206 PWs)   bands (ev):

   -61.5226 -61.5226 -37.4630 -37.4630 -35.0798 -35.0798 -34.8667 -34.8667
   -13.0780 -13.0780 -12.9433 -12.9433  -6.8420  -6.8420  -5.8361  -5.8361
    -5.0595  -5.0595  -4.0841  -4.0841  -2.8135  -2.8135  -1.7693  -1.7693
    -1.5319  -1.5319   1.5231   1.5231   2.0388   2.0388   3.0716   3.0716
     3.5978   3.5978

     occupation numbers 
[...]

   -61.5385 -61.5385 -37.4153 -37.4153 -34.9932 -34.9932 -34.8507 -34.8507
   -13.9068 -13.9068 -13.2595 -13.2595  -6.1275  -6.1275  -4.9615  -4.9615
    -4.8198  -4.8198  -3.6147  -3.6147  -2.4404  -2.4404  -2.3260  -2.3260
    -1.8614  -1.8614   1.3966   1.3966   1.5056   1.5056   2.4323   2.4323
     3.2786   3.2786

     occupation numbers 
     1.0000   1.0000   1.0000   1.0000   1.0000   1.0000   1.0000   1.0000
     1.0000   1.0000   1.0000   1.0000   1.0000   1.0000   1.0000   1.0000
     1.0000   1.0000   1.0000   1.0000   1.0000   1.0000   1.0000   1.0000
     1.0000   1.0000   0.0000   0.0000   0.0000   0.0000   0.0000   0.0000
     0.0000   0.0000

          k =-0.3000-0.0577 0.0000 ( 10226 PWs)   bands (ev):

   -61.5435 -61.5435 -37.4039 -37.3978 -34.9648 -34.9643 -34.8510 -34.8427
   -14.1342 -14.1230 -13.3464 -13.3454  -5.9765  -5.9584  -4.7572  -4.7523
    -4.5525  -4.5380  -3.8370  -3.8250  -2.7587  -2.6951  -1.9738  -1.9425
    -1.6858  -1.6332   1.1326   1.1806   1.6550   1.6697   1.8915   1.9501
     3.2767   3.3190

     occupation numbers 
     1.0000   1.0000   1.0000   1.0000   1.0000   1.0000   1.0000   1.0000
     1.0000   1.0000   1.0000   1.0000   1.0000   1.0000   1.0000   1.0000
     1.0000   1.0000   1.0000   1.0000   1.0000   1.0000   1.0000   1.0000
     1.0000   1.0000   0.0000   0.0000   0.0000   0.0000   0.0000   0.0000
     0.0000   0.0000

          k =-0.3000 0.0577 0.0000 ( 10226 PWs)   bands (ev):

   -61.5435 -61.5435 -37.4039 -37.3978 -34.9648 -34.9643 -34.8510 -34.8427
   -14.1342 -14.1230 -13.3464 -13.3454  -5.9765  -5.9584  -4.7572  -4.7523
    -4.5525  -4.5380  -3.8370  -3.8250  -2.7587  -2.6951  -1.9738  -1.9425
    -1.6858  -1.6332   1.1326   1.1806   1.6550   1.6697   1.8915   1.9501
     3.2767   3.3190

     occupation numbers 
     1.0000   1.0000   1.0000   1.0000   1.0000   1.0000   1.0000   1.0000
     1.0000   1.0000   1.0000   1.0000   1.0000   1.0000   1.0000   1.0000
     1.0000   1.0000   1.0000   1.0000   1.0000   1.0000   1.0000   1.0000
     1.0000   1.0000   0.0000   0.0000   0.0000   0.0000   0.0000   0.0000
     0.0000   0.0000

          k =-0.2000 0.1155 0.0000 ( 10237 PWs)   bands (ev):

   -61.5527 -61.5527 -37.3754 -37.3754 -34.9372 -34.9372 -34.8087 -34.8087
   -14.5151 -14.5151 -13.5043 -13.5043  -6.1115  -6.1115  -4.5084  -4.5084
    -4.1551  -4.1551  -3.1052  -3.1052  -2.8924  -2.8924  -2.0344  -2.0344
    -1.3798  -1.3798   1.3606   1.3606   1.7520   1.7520   1.8963   1.8963
     2.8222   2.8222

     occupation numbers 
     1.0000   1.0000   1.0000   1.0000   1.0000   1.0000   1.0000   1.0000
     1.0000   1.0000   1.0000   1.0000   1.0000   1.0000   1.0000   1.0000
     1.0000   1.0000   1.0000   1.0000   1.0000   1.0000   1.0000   1.0000
     1.0000   1.0000   0.0000   0.0000   0.0000   0.0000   0.0000   0.0000
     0.0000   0.0000

          k =-0.2000 0.2309 0.0000 ( 10226 PWs)   bands (ev):

   -61.5435 -61.5435 -37.4039 -37.3978 -34.9648 -34.9643 -34.8510 -34.8427
   -14.1342 -14.1230 -13.3464 -13.3454  -5.9765  -5.9584  -4.7572  -4.7523
    -4.5525  -4.5380  -3.8370  -3.8250  -2.7587  -2.6951  -1.9738  -1.9425
    -1.6858  -1.6332   1.1326   1.1806   1.6550   1.6697   1.8915   1.9501
     3.2767   3.3190

     occupation numbers 
     1.0000   1.0000   1.0000   1.0000   1.0000   1.0000   1.0000   1.0000
     1.0000   1.0000   1.0000   1.0000   1.0000   1.0000   1.0000   1.0000
     1.0000   1.0000   1.0000   1.0000   1.0000   1.0000   1.0000   1.0000
     1.0000   1.0000   0.0000   0.0000   0.0000   0.0000   0.0000   0.0000
     0.0000   0.0000

          k =-0.2000 0.3464 0.0000 ( 10186 PWs)   bands (ev):

   -61.5319 -61.5319 -37.4397 -37.4259 -35.0111 -34.9991 -34.8894 -34.8817
   -13.6113 -13.5830 -13.1263 -13.1238  -6.0838  -6.0632  -5.2192  -5.1995
    -4.6417  -4.6269  -4.3124  -4.2880  -3.2014  -3.1237  -2.1198  -2.0943
    -1.7014  -1.6080   1.1217   1.1961   1.8225   1.8264   2.0599   2.0951
     3.6861   3.7009

     occupation numbers 
     1.0000   1.0000   1.0000   1.0000   1.0000   1.0000   1.0000   1.0000
     1.0000   1.0000   1.0000   1.0000   1.0000   1.0000   1.0000   1.0000
     1.0000   1.0000   1.0000   1.0000   1.0000   1.0000   1.0000   1.0000
     1.0000   1.0000   0.0000   0.0000   0.0000   0.0000   0.0000   0.0000
     0.0000   0.0000

          k =-0.2000 0.4619 0.0000 ( 10177 PWs)   bands (ev):

   -61.5226 -61.5226 -37.4692 -37.4490 -35.0582 -35.0303 -34.9097 -34.9090
   -13.1305 -13.0836 -12.9210 -12.9171  -6.2407  -6.2330  -5.9555  -5.9451
    -4.6599  -4.6577  -4.2060  -4.1866  -3.6351  -3.5736  -2.5708  -2.5606
    -1.4375  -1.3287   1.4055   1.4171   2.0490   2.1551   2.3611   2.3698
     3.8256   3.8615

     occupation numbers 
     1.0000   1.0000   1.0000   1.0000   1.0000   1.0000   1.0000   1.0000
     1.0000   1.0000   1.0000   1.0000   1.0000   1.0000   1.0000   1.0000
     1.0000   1.0000   1.0000   1.0000   1.0000   1.0000   1.0000   1.0000
     1.0000   1.0000   0.0000   0.0000   0.0000   0.0000   0.0000   0.0000
     0.0000   0.0000

          k =-0.2000 0.5774 0.0000 ( 10166 PWs)   bands (ev):

   -61.5190 -61.5190 -37.4806 -37.4578 -35.0778 -35.0432 -34.9182 -34.9156
   -12.9281 -12.8725 -12.8342 -12.8302  -6.2905  -6.2564  -6.2378  -6.2331
    -4.8968  -4.8863  -4.0592  -4.0384  -3.6654  -3.6133  -2.8526  -2.8519
    -1.1830  -1.0620   1.2809   1.3168   2.3746   2.4611   2.5171   2.5498
     3.8351   3.8973

     occupation numbers 
     1.0000   1.0000   1.0000   1.0000   1.0000   1.0000   1.0000   1.0000
     1.0000   1.0000   1.0000   1.0000   1.0000   1.0000   1.0000   1.0000
     1.0000   1.0000   1.0000   1.0000   1.0000   1.0000   1.0000   1.0000
     1.0000   1.0000   0.0000   0.0000   0.0000   0.0000   0.0000   0.0000
     0.0000   0.0000

          k =-0.2000-0.4619 0.0000 ( 10177 PWs)   bands (ev):

   -61.5226 -61.5226 -37.4692 -37.4490 -35.0582 -35.0303 -34.9097 -34.9090
   -13.1305 -13.0836 -12.9210 -12.9171  -6.2407  -6.2330  -5.9555  -5.9451
    -4.6599  -4.6577  -4.2060  -4.1866  -3.6351  -3.5736  -2.5708  -2.5606
    -1.4375  -1.3287   1.4055   1.4171   2.0490   2.1551   2.3611   2.3698
     3.8256   3.8615

     occupation numbers 
     1.0000   1.0000   1.0000   1.0000   1.0000   1.0000   1.0000   1.0000
     1.0000   1.0000   1.0000   1.0000   1.0000   1.0000   1.0000   1.0000
     1.0000   1.0000   1.0000   1.0000   1.0000   1.0000   1.0000   1.0000
     1.0000   1.0000   0.0000   0.0000   0.0000   0.0000   0.0000   0.0000
     0.0000   0.0000

          k =-0.2000-0.3464 0.0000 ( 10186 PWs)   bands (ev):

   -61.5319 -61.5319 -37.4397 -37.4259 -35.0111 -34.9991 -34.8894 -34.8817
   -13.6113 -13.5830 -13.1263 -13.1238  -6.0838  -6.0632  -5.2192  -5.1995
    -4.6417  -4.6269  -4.3124  -4.2880  -3.2014  -3.1237  -2.1198  -2.0943
    -1.7014  -1.6080   1.1217   1.1961   1.8225   1.8264   2.0599   2.0951
     3.6861   3.7009

     occupation numbers 
     1.0000   1.0000   1.0000   1.0000   1.0000   1.0000   1.0000   1.0000
     1.0000   1.0000   1.0000   1.0000   1.0000   1.0000   1.0000   1.0000
     1.0000   1.0000   1.0000   1.0000   1.0000   1.0000   1.0000   1.0000
     1.0000   1.0000   0.0000   0.0000   0.0000   0.0000   0.0000   0.0000
     0.0000   0.0000

          k =-0.2000-0.2309 0.0000 ( 10226 PWs)   bands (ev):

   -61.5435 -61.5435 -37.4039 -37.3978 -34.9648 -34.9643 -34.8510 -34.8427
   -14.1342 -14.1230 -13.3464 -13.3454  -5.9765  -5.9584  -4.7572  -4.7523
    -4.5525  -4.5380  -3.8370  -3.8250  -2.7587  -2.6951  -1.9738  -1.9425
    -1.6858  -1.6332   1.1326   1.1806   1.6550   1.6697   1.8915   1.9501
     3.2767   3.3190

     occupation numbers 
     1.0000   1.0000   1.0000   1.0000   1.0000   1.0000   1.0000   1.0000
     1.0000   1.0000   1.0000   1.0000   1.0000   1.0000   1.0000   1.0000
     1.0000   1.0000   1.0000   1.0000   1.0000   1.0000   1.0000   1.0000
     1.0000   1.0000   0.0000   0.0000   0.0000   0.0000   0.0000   0.0000
     0.0000   0.0000

          k =-0.2000-0.1155 0.0000 ( 10237 PWs)   bands (ev):

   -61.5527 -61.5527 -37.3754 -37.3754 -34.9372 -34.9372 -34.8087 -34.8087
   -14.5151 -14.5151 -13.5043 -13.5043  -6.1115  -6.1115  -4.5084  -4.5084
    -4.1551  -4.1551  -3.1052  -3.1052  -2.8924  -2.8924  -2.0344  -2.0344
    -1.3798  -1.3798   1.3606   1.3606   1.7520   1.7520   1.8963   1.8963
     2.8222   2.8222

     occupation numbers 
     1.0000   1.0000   1.0000   1.0000   1.0000   1.0000   1.0000   1.0000
     1.0000   1.0000   1.0000   1.0000   1.0000   1.0000   1.0000   1.0000
     1.0000   1.0000   1.0000   1.0000   1.0000   1.0000   1.0000   1.0000
     1.0000   1.0000   0.0000   0.0000   0.0000   0.0000   0.0000   0.0000
     0.0000   0.0000

          k =-0.2000 0.0000 0.0000 ( 10235 PWs)   bands (ev):

   -61.5563 -61.5563 -37.3670 -37.3647 -34.9283 -34.9268 -34.7955 -34.7907
   -14.6565 -14.6527 -13.5611 -13.5608  -6.2060  -6.2003  -4.3314  -4.3202
    -3.8577  -3.8529  -3.1689  -3.1639  -3.0681  -3.0379  -1.8093  -1.7789
    -1.2440  -1.2332   1.4342   1.4377   1.6521   1.7049   1.8216   1.8508
     2.7282   2.7783

     occupation numbers 
     1.0000   1.0000   1.0000   1.0000   1.0000   1.0000   1.0000   1.0000
     1.0000   1.0000   1.0000   1.0000   1.0000   1.0000   1.0000   1.0000
     1.0000   1.0000   1.0000   1.0000   1.0000   1.0000   1.0000   1.0000
     1.0000   1.0000   0.0000   0.0000   0.0000   0.0000   0.0000   0.0000
     0.0000   0.0000

          k =-0.1000 0.0577 0.0000 ( 10233 PWs)   bands (ev):

   -61.5642 -61.5642 -37.3451 -37.3451 -34.9146 -34.9146 -34.7478 -34.7478
   -14.9522 -14.9522 -13.6830 -13.6830  -6.4952  -6.4952  -3.8385  -3.8385
    -3.3605  -3.3605  -3.3147  -3.3147  -2.5818  -2.5818  -1.9825  -1.9825
    -1.0249  -1.0249   1.8129   1.8129   1.8788   1.8788   2.1123   2.1123
     2.2877   2.2877

     occupation numbers 
     1.0000   1.0000   1.0000   1.0000   1.0000   1.0000   1.0000   1.0000
     1.0000   1.0000   1.0000   1.0000   1.0000   1.0000   1.0000   1.0000
     1.0000   1.0000   1.0000   1.0000   1.0000   1.0000   1.0000   1.0000
     1.0000   1.0000   0.0000   0.0000   0.0000   0.0000   0.0000   0.0000
     0.0000   0.0000

          k =-0.1000 0.1732 0.0000 ( 10235 PWs)   bands (ev):

   -61.5563 -61.5563 -37.3670 -37.3647 -34.9283 -34.9268 -34.7955 -34.7907
   -14.6565 -14.6527 -13.5611 -13.5608  -6.2060  -6.2003  -4.3314  -4.3202
    -3.8577  -3.8529  -3.1689  -3.1639  -3.0681  -3.0379  -1.8093  -1.7789
    -1.2440  -1.2332   1.4342   1.4377   1.6521   1.7049   1.8216   1.8508
     2.7282   2.7783

     occupation numbers 
     1.0000   1.0000   1.0000   1.0000   1.0000   1.0000   1.0000   1.0000
     1.0000   1.0000   1.0000   1.0000   1.0000   1.0000   1.0000   1.0000
     1.0000   1.0000   1.0000   1.0000   1.0000   1.0000   1.0000   1.0000
     1.0000   1.0000   0.0000   0.0000   0.0000   0.0000   0.0000   0.0000
     0.0000   0.0000

          k =-0.1000 0.2887 0.0000 ( 10226 PWs)   bands (ev):

   -61.5435 -61.5435 -37.4039 -37.3978 -34.9648 -34.9643 -34.8510 -34.8427
   -14.1342 -14.1230 -13.3464 -13.3454  -5.9765  -5.9584  -4.7572  -4.7523
    -4.5525  -4.5380  -3.8370  -3.8250  -2.7587  -2.6951  -1.9738  -1.9425
    -1.6858  -1.6332   1.1326   1.1806   1.6550   1.6697   1.8915   1.9501
     3.2767   3.3190

     occupation numbers 
     1.0000   1.0000   1.0000   1.0000   1.0000   1.0000   1.0000   1.0000
     1.0000   1.0000   1.0000   1.0000   1.0000   1.0000   1.0000   1.0000
     1.0000   1.0000   1.0000   1.0000   1.0000   1.0000   1.0000   1.0000
     1.0000   1.0000   0.0000   0.0000   0.0000   0.0000   0.0000   0.0000
     0.0000   0.0000

          k =-0.1000 0.4041 0.0000 ( 10201 PWs)   bands (ev):

   -61.5306 -61.5306 -37.4428 -37.4328 -35.0293 -35.0203 -34.8756 -34.8704
   -13.5342 -13.5132 -13.1037 -13.1019  -6.2895  -6.2828  -5.3687  -5.3588
    -4.7827  -4.7790  -4.0859  -4.0744  -2.7105  -2.6322  -2.4066  -2.3863
    -1.7032  -1.6136   1.2658   1.3226   1.7665   1.7725   2.4580   2.4945
     3.5462   3.5700

     occupation numbers 
     1.0000   1.0000   1.0000   1.0000   1.0000   1.0000   1.0000   1.0000
     1.0000   1.0000   1.0000   1.0000   1.0000   1.0000   1.0000   1.0000
     1.0000   1.0000   1.0000   1.0000   1.0000   1.0000   1.0000   1.0000
     1.0000   1.0000   0.0000   0.0000   0.0000   0.0000   0.0000   0.0000
     0.0000   0.0000

          k =-0.1000 0.5196 0.0000 ( 10190 PWs)   bands (ev):

   -61.5226 -61.5226 -37.4678 -37.4553 -35.0756 -35.0608 -34.8824 -34.8796
   -13.1040 -13.0745 -12.9352 -12.9329  -6.6451  -6.6316  -5.8855  -5.8793
    -4.9667  -4.9577  -4.1210  -4.1102  -2.7447  -2.7437  -2.5593  -2.4909
    -1.4097  -1.3037   1.4952   1.5342   1.9895   2.0934   2.9769   2.9920
     3.4392   3.4418

     occupation numbers 
     1.0000   1.0000   1.0000   1.0000   1.0000   1.0000   1.0000   1.0000
     1.0000   1.0000   1.0000   1.0000   1.0000   1.0000   1.0000   1.0000
     1.0000   1.0000   1.0000   1.0000   1.0000   1.0000   1.0000   1.0000
     1.0000   1.0000   0.0000   0.0000   0.0000   0.0000   0.0000   0.0000
     0.0000   0.0000

          k =-0.1000-0.5196 0.0000 ( 10190 PWs)   bands (ev):

   -61.5226 -61.5226 -37.4678 -37.4553 -35.0756 -35.0608 -34.8824 -34.8796
   -13.1040 -13.0745 -12.9352 -12.9329  -6.6451  -6.6316  -5.8855  -5.8793
    -4.9667  -4.9577  -4.1210  -4.1102  -2.7447  -2.7437  -2.5593  -2.4909
    -1.4097  -1.3037   1.4952   1.5342   1.9895   2.0934   2.9769   2.9920
     3.4392   3.4418

     occupation numbers 
     1.0000   1.0000   1.0000   1.0000   1.0000   1.0000   1.0000   1.0000
     1.0000   1.0000   1.0000   1.0000   1.0000   1.0000   1.0000   1.0000
     1.0000   1.0000   1.0000   1.0000   1.0000   1.0000   1.0000   1.0000
     1.0000   1.0000   0.0000   0.0000   0.0000   0.0000   0.0000   0.0000
     0.0000   0.0000

          k =-0.1000-0.4041 0.0000 ( 10201 PWs)   bands (ev):

   -61.5306 -61.5306 -37.4428 -37.4328 -35.0293 -35.0203 -34.8756 -34.8704
   -13.5342 -13.5132 -13.1037 -13.1019  -6.2895  -6.2828  -5.3687  -5.3588
    -4.7827  -4.7790  -4.0859  -4.0744  -2.7105  -2.6322  -2.4066  -2.3863
    -1.7032  -1.6136   1.2658   1.3226   1.7665   1.7725   2.4580   2.4945
     3.5462   3.5700

     occupation numbers 
     1.0000   1.0000   1.0000   1.0000   1.0000   1.0000   1.0000   1.0000
     1.0000   1.0000   1.0000   1.0000   1.0000   1.0000   1.0000   1.0000
     1.0000   1.0000   1.0000   1.0000   1.0000   1.0000   1.0000   1.0000
     1.0000   1.0000   0.0000   0.0000   0.0000   0.0000   0.0000   0.0000
     0.0000   0.0000

          k =-0.1000-0.2887 0.0000 ( 10226 PWs)   bands (ev):

   -61.5435 -61.5435 -37.4039 -37.3978 -34.9648 -34.9643 -34.8510 -34.8427
   -14.1342 -14.1230 -13.3464 -13.3454  -5.9765  -5.9584  -4.7572  -4.7523
    -4.5525  -4.5380  -3.8370  -3.8250  -2.7587  -2.6951  -1.9738  -1.9425
    -1.6858  -1.6332   1.1326   1.1806   1.6550   1.6697   1.8915   1.9501
     3.2767   3.3190

     occupation numbers 
     1.0000   1.0000   1.0000   1.0000   1.0000   1.0000   1.0000   1.0000
     1.0000   1.0000   1.0000   1.0000   1.0000   1.0000   1.0000   1.0000
     1.0000   1.0000   1.0000   1.0000   1.0000   1.0000   1.0000   1.0000
     1.0000   1.0000   0.0000   0.0000   0.0000   0.0000   0.0000   0.0000
     0.0000   0.0000

          k =-0.1000-0.1732 0.0000 ( 10235 PWs)   bands (ev):

   -61.5563 -61.5563 -37.3670 -37.3647 -34.9283 -34.9268 -34.7955 -34.7907
   -14.6565 -14.6527 -13.5611 -13.5608  -6.2060  -6.2003  -4.3314  -4.3202
    -3.8577  -3.8529  -3.1689  -3.1639  -3.0681  -3.0379  -1.8093  -1.7789
    -1.2440  -1.2332   1.4342   1.4377   1.6521   1.7049   1.8216   1.8508
     2.7282   2.7783

     occupation numbers 
     1.0000   1.0000   1.0000   1.0000   1.0000   1.0000   1.0000   1.0000
     1.0000   1.0000   1.0000   1.0000   1.0000   1.0000   1.0000   1.0000
     1.0000   1.0000   1.0000   1.0000   1.0000   1.0000   1.0000   1.0000
     1.0000   1.0000   0.0000   0.0000   0.0000   0.0000   0.0000   0.0000
     0.0000   0.0000

          k =-0.1000-0.0577 0.0000 ( 10233 PWs)   bands (ev):

   -61.5642 -61.5642 -37.3451 -37.3451 -34.9146 -34.9146 -34.7478 -34.7478
   -14.9522 -14.9522 -13.6830 -13.6830  -6.4952  -6.4952  -3.8385  -3.8385
    -3.3605  -3.3605  -3.3147  -3.3147  -2.5818  -2.5818  -1.9825  -1.9825
    -1.0249  -1.0249   1.8129   1.8129   1.8788   1.8788   2.1123   2.1123
     2.2877   2.2877

     occupation numbers 
     1.0000   1.0000   1.0000   1.0000   1.0000   1.0000   1.0000   1.0000
     1.0000   1.0000   1.0000   1.0000   1.0000   1.0000   1.0000   1.0000
     1.0000   1.0000   1.0000   1.0000   1.0000   1.0000   1.0000   1.0000
     1.0000   1.0000   0.0000   0.0000   0.0000   0.0000   0.0000   0.0000
     0.0000   0.0000

     the Fermi energy is     0.1253 ev

!    total energy              =    -193.48198692 Ry
     Harris-Foulkes estimate   =    -193.48198692 Ry
     estimated scf accuracy    <          7.8E-11 Ry

     The total energy is the sum of the following terms:

     one-electron contribution =   -1146.07557721 Ry
     hartree contribution      =     573.96834626 Ry
     xc contribution           =     -42.47189728 Ry
     ewald contribution        =     421.09714132 Ry
     smearing contrib. (-TS)   =      -0.00000000 Ry

     convergence has been achieved in  41 iterations

     Writing output data file tmd.save
 
     init_run     :     15.34s CPU     28.50s WALL (       1 calls)
     electrons    :   1060.26s CPU   1072.07s WALL (       1 calls)

     Called by init_run:
     wfcinit      :      9.03s CPU     11.58s WALL (       1 calls)
     potinit      :      0.88s CPU      3.54s WALL (       1 calls)

     Called by electrons:
     c_bands      :    724.00s CPU    729.67s WALL (      41 calls)
     sum_band     :    305.50s CPU    308.49s WALL (      41 calls)
     v_of_rho     :      2.66s CPU      3.99s WALL (      42 calls)
     v_h          :      0.27s CPU      0.31s WALL (      42 calls)
     v_xc         :      2.38s CPU      3.12s WALL (      42 calls)
     newd         :     25.86s CPU     26.96s WALL (      42 calls)
     mix_rho      :      1.72s CPU      3.23s WALL (      41 calls)

     Called by c_bands:
     init_us_2    :      2.65s CPU      3.87s WALL (    8300 calls)
     cegterg      :    691.35s CPU    696.58s WALL (    4100 calls)

     Called by sum_band:
     sum_band:bec :      2.01s CPU      3.79s WALL (    4100 calls)
     addusdens    :     15.56s CPU     15.69s WALL (      41 calls)

     Called by *egterg:
     h_psi        :    530.84s CPU    538.68s WALL (   12766 calls)
     s_psi        :     18.29s CPU     18.82s WALL (   12766 calls)
     g_psi        :      1.22s CPU      1.31s WALL (    8566 calls)
     cdiaghg      :     51.14s CPU     50.93s WALL (   12666 calls)
     cegterg:over :     38.25s CPU     35.08s WALL (    8566 calls)
     cegterg:upda :      8.05s CPU     11.51s WALL (    8566 calls)
     cegterg:last :      4.80s CPU      6.44s WALL (    4100 calls)

     Called by h_psi:
     h_psi:vloc   :    482.92s CPU    489.10s WALL (   12766 calls)
     h_psi:vnl    :     46.76s CPU     47.13s WALL (   12766 calls)
     add_vuspsi   :     10.81s CPU     15.88s WALL (   12766 calls)

     General routines
     calbec       :     50.43s CPU     44.05s WALL (   16866 calls)
     fft          :      5.89s CPU      7.45s WALL (    1286 calls)
     ffts         :      0.17s CPU      0.65s WALL (     332 calls)
     fftw         :    512.19s CPU    515.02s WALL ( 1571444 calls)
     interpolate  :      1.44s CPU      1.90s WALL (     332 calls)
 
     Parallel routines
     fft_scatter  :    382.28s CPU    381.87s WALL ( 1573062 calls)
 
     PWSCF        : 18m11.73s CPU    20m 4.12s WALL

 
   This run was terminated on:  16:18:56  18Sep2015            

=------------------------------------------------------------------------------=
   JOB DONE.
=------------------------------------------------------------------------------=
