
     Program PWSCF v.6.4.1 starts on 30Jul2019 at 16:48:16 

     This program is part of the open-source Quantum ESPRESSO suite
     for quantum simulation of materials; please cite
         "P. Giannozzi et al., J. Phys.:Condens. Matter 21 395502 (2009);
         "P. Giannozzi et al., J. Phys.:Condens. Matter 29 465901 (2017);
          URL http://www.quantum-espresso.org", 
     in publications or presentations arising from this work. More details at
     http://www.quantum-espresso.org/quote

     Parallel version (MPI), running on    28 processors

     MPI processes distributed on     1 nodes
     R & G space division:  proc/nbgrp/npool/nimage =      28
     Waiting for input...
     Reading input from standard input

     Current dimensions of program PWSCF are:
     Max number of different atomic species (ntypx) = 10
     Max number of k-points (npk) =  40000
     Max angular momentum in pseudopotentials (lmaxx) =  3
               file Bi.rel-pbe-dn-rrkjus_psl.1.0.0.UPF: wavefunction(s)  5D 5D renormalized

     Subspace diagonalization in iterative solution of the eigenvalue problem:
     a serial algorithm will be used

     Found symmetry operation: I + (  0.3333  0.3333  0.3333)
     This is a supercell, fractional translations are disabled
     Message from routine setup:
     DEPRECATED: symmetry with ibrav=0, use correct ibrav instead
 
     Parallelization info
     --------------------
     sticks:   dense  smooth     PW     G-vecs:    dense   smooth      PW
     Min          27      27      9                 4155     4155     783
     Max          28      28     10                 4187     4187     804
     Sum         757     757    253               116883   116883   22117
 


     bravais-lattice index     =            0
     lattice parameter (alat)  =       7.8197  a.u.
     unit-cell volume          =    2866.0322 (a.u.)^3
     number of atoms/cell      =           15
     number of atomic types    =            2
     number of electrons       =       144.00
     number of Kohn-Sham states=          144
     kinetic-energy cutoff     =      50.0000  Ry
     charge density cutoff     =     180.0000  Ry
     convergence threshold     =      1.0E-08
     mixing beta               =       0.7000
     number of iterations used =            8  plain     mixing
     Exchange-correlation      = PBE ( 1  4  3  4 0 0)
     Non magnetic calculation with spin-orbit


     celldm(1)=   7.819687  celldm(2)=   0.000000  celldm(3)=   0.000000
     celldm(4)=   0.000000  celldm(5)=   0.000000  celldm(6)=   0.000000

     crystal axes: (cart. coord. in units of alat)
               a(1) = (  -1.000000   0.000000   0.000000 )  
               a(2) = (  -0.500000  -0.866025   0.000000 )  
               a(3) = (   0.000000   0.000000   6.921218 )  

     reciprocal axes: (cart. coord. in units 2 pi/alat)
               b(1) = ( -1.000000  0.577351  0.000000 )  
               b(2) = (  0.000000 -1.154701  0.000000 )  
               b(3) = (  0.000000  0.000000  0.144483 )  


     PseudoPot. # 1 for Bi read from file:
     ./Bi.rel-pbe-dn-rrkjus_psl.1.0.0.UPF
     MD5 check sum: 0357e51b97995f252f8888940afc4c39
     Pseudo is Ultrasoft + core correction, Zval = 15.0
     Generated using "atomic" code by A. Dal Corso v.6.2.2
     Using radial grid of 1283 points, 10 beta functions with: 
                l(1) =   0
                l(2) =   0
                l(3) =   1
                l(4) =   1
                l(5) =   1
                l(6) =   1
                l(7) =   2
                l(8) =   2
                l(9) =   2
               l(10) =   2
     Q(r) pseudized with 0 coefficients 


     PseudoPot. # 2 for Se read from file:
     ./Se.rel-pbe-n-rrkjus_psl.1.0.0.UPF
     MD5 check sum: 5814ce90e4698b414266ede4081e6611
     Pseudo is Ultrasoft + core correction, Zval =  6.0
     Generated using "atomic" code by A. Dal Corso v.6.3
     Using radial grid of 1211 points,  6 beta functions with: 
                l(1) =   0
                l(2) =   0
                l(3) =   1
                l(4) =   1
                l(5) =   1
                l(6) =   1
     Q(r) pseudized with 0 coefficients 


     atomic species   valence    mass     pseudopotential
        bi            15.00     1.00000     Bi( 1.00)
        se             6.00     1.00000     Se( 1.00)

     12 Sym. Ops., with inversion, found


                                    s                        frac. trans.

      isym =  1     identity                                     

 cryst.   s( 1) = (     1          0          0      )
                  (     0          1          0      )
                  (     0          0          1      )

 cart.    s( 1) = (  1.0000000  0.0000000  0.0000000 )
                  (  0.0000000  1.0000000  0.0000000 )
                  (  0.0000000  0.0000000  1.0000000 )


      isym =  2     180 deg rotation - cart. axis [1,0,0]        

 cryst.   s( 2) = (     1          0          0      )
                  (     1         -1          0      )
                  (     0          0         -1      )

 cart.    s( 2) = (  1.0000000  0.0000000  0.0000000 )
                  (  0.0000000 -1.0000000  0.0000000 )
                  (  0.0000000  0.0000000 -1.0000000 )


      isym =  3     120 deg rotation - cryst. axis [0,0,1]       

 cryst.   s( 3) = (    -1          1          0      )
                  (    -1          0          0      )
                  (     0          0          1      )

 cart.    s( 3) = ( -0.5000000 -0.8660258  0.0000000 )
                  (  0.8660250 -0.5000000  0.0000000 )
                  (  0.0000000  0.0000000  1.0000000 )


      isym =  4     120 deg rotation - cryst. axis [0,0,-1]      

 cryst.   s( 4) = (     0         -1          0      )
                  (     1         -1          0      )
                  (     0          0          1      )

 cart.    s( 4) = ( -0.5000000  0.8660258  0.0000000 )
                  ( -0.8660250 -0.5000000  0.0000000 )
                  (  0.0000000  0.0000000  1.0000000 )


      isym =  5     180 deg rotation - cryst. axis [0,1,0]       

 cryst.   s( 5) = (     0         -1          0      )
                  (    -1          0          0      )
                  (     0          0         -1      )

 cart.    s( 5) = ( -0.5000000 -0.8660258  0.0000000 )
                  ( -0.8660250  0.5000000  0.0000000 )
                  (  0.0000000  0.0000000 -1.0000000 )


      isym =  6     180 deg rotation - cryst. axis [1,1,0]       

 cryst.   s( 6) = (    -1          1          0      )
                  (     0          1          0      )
                  (     0          0         -1      )

 cart.    s( 6) = ( -0.5000000  0.8660258  0.0000000 )
                  (  0.8660250  0.5000000  0.0000000 )
                  (  0.0000000  0.0000000 -1.0000000 )


      isym =  7     inversion                                    

 cryst.   s( 7) = (    -1          0          0      )
                  (     0         -1          0      )
                  (     0          0         -1      )

 cart.    s( 7) = ( -1.0000000  0.0000000  0.0000000 )
                  (  0.0000000 -1.0000000  0.0000000 )
                  (  0.0000000  0.0000000 -1.0000000 )


      isym =  8     inv. 180 deg rotation - cart. axis [1,0,0]   

 cryst.   s( 8) = (    -1          0          0      )
                  (    -1          1          0      )
                  (     0          0          1      )

 cart.    s( 8) = ( -1.0000000  0.0000000  0.0000000 )
                  (  0.0000000  1.0000000  0.0000000 )
                  (  0.0000000  0.0000000  1.0000000 )


      isym =  9     inv. 120 deg rotation - cryst. axis [0,0,1]  

 cryst.   s( 9) = (     1         -1          0      )
                  (     1          0          0      )
                  (     0          0         -1      )

 cart.    s( 9) = (  0.5000000  0.8660258  0.0000000 )
                  ( -0.8660250  0.5000000  0.0000000 )
                  (  0.0000000  0.0000000 -1.0000000 )


      isym = 10     inv. 120 deg rotation - cryst. axis [0,0,-1] 

 cryst.   s(10) = (     0          1          0      )
                  (    -1          1          0      )
                  (     0          0         -1      )

 cart.    s(10) = (  0.5000000 -0.8660258  0.0000000 )
                  (  0.8660250  0.5000000  0.0000000 )
                  (  0.0000000  0.0000000 -1.0000000 )


      isym = 11     inv. 180 deg rotation - cryst. axis [0,1,0]  

 cryst.   s(11) = (     0          1          0      )
                  (     1          0          0      )
                  (     0          0          1      )

 cart.    s(11) = (  0.5000000  0.8660258  0.0000000 )
                  (  0.8660250 -0.5000000  0.0000000 )
                  (  0.0000000  0.0000000  1.0000000 )


      isym = 12     inv. 180 deg rotation - cryst. axis [1,1,0]  

 cryst.   s(12) = (     1         -1          0      )
                  (     0         -1          0      )
                  (     0          0          1      )

 cart.    s(12) = (  0.5000000 -0.8660258  0.0000000 )
                  ( -0.8660250 -0.5000000  0.0000000 )
                  (  0.0000000  0.0000000  1.0000000 )


   Cartesian axes

     site n.     atom                  positions (alat units)
         1           se  tau(   1) = (  -0.5000000  -0.2886751   3.7328436  )
         2           se  tau(   2) = (  -0.5000000  -0.2886751   0.8813018  )
         3           bi  tau(   3) = (  -0.5000000  -0.2886751   5.0686386  )
         4           bi  tau(   4) = (  -0.5000000  -0.2886751   6.4667247  )
         5           se  tau(   5) = (  -1.0000000  -0.5773503   4.6141453  )
         6           se  tau(   6) = (  -1.0000000  -0.5773503   6.0399162  )
         7           bi  tau(   7) = (  -1.0000000  -0.5773503   0.4544933  )
         8           bi  tau(   8) = (  -1.0000000  -0.5773503   1.8525793  )
         9           se  tau(   9) = (  -1.0000000   0.0000000   0.0000000  )
        10           se  tau(  10) = (  -0.5000000  -0.8660254   1.4257709  )
        11           bi  tau(  11) = (  -0.5000000  -0.8660254   2.7615660  )
        12           se  tau(  12) = (   0.0000000   0.0000000   5.4954471  )
        13           bi  tau(  13) = (   0.0000000   0.0000000   4.1596520  )
        14           se  tau(  14) = (  -1.0000000  -0.5773503   3.1883744  )
        15           se  tau(  15) = (  -0.5000000  -0.2886751   2.3070727  )

   Crystallographic axes

     site n.     atom                  positions (cryst. coord.)
         1           se  tau(   1) = (  0.3333333  0.3333334  0.5393333  )
         2           se  tau(   2) = (  0.3333333  0.3333334  0.1273333  )
         3           bi  tau(   3) = (  0.3333333  0.3333334  0.7323333  )
         4           bi  tau(   4) = (  0.3333333  0.3333334  0.9343333  )
         5           se  tau(   5) = (  0.6666665  0.6666670  0.6666667  )
         6           se  tau(   6) = (  0.6666665  0.6666670  0.8726667  )
         7           bi  tau(   7) = (  0.6666665  0.6666670  0.0656667  )
         8           bi  tau(   8) = (  0.6666665  0.6666670  0.2676667  )
         9           se  tau(   9) = (  1.0000000  0.0000000  0.0000000  )
        10           se  tau(  10) = ( -0.0000002  1.0000005  0.2060000  )
        11           bi  tau(  11) = ( -0.0000002  1.0000005  0.3990000  )
        12           se  tau(  12) = (  0.0000000  0.0000000  0.7940000  )
        13           bi  tau(  13) = (  0.0000000  0.0000000  0.6010000  )
        14           se  tau(  14) = (  0.6666665  0.6666670  0.4606667  )
        15           se  tau(  15) = (  0.3333333  0.3333334  0.3333333  )

     number of k points=    10
                       cart. coord. in units 2pi/alat
        k(    1) = (   0.0000000   0.0000000   0.0000000), wk =   0.0156250
        k(    2) = (   0.0000000  -0.1443376   0.0000000), wk =   0.0937500
        k(    3) = (   0.0000000  -0.2886753   0.0000000), wk =   0.0937500
        k(    4) = (   0.0000000  -0.4330129   0.0000000), wk =   0.0937500
        k(    5) = (   0.0000000   0.5773505   0.0000000), wk =   0.0468750
        k(    6) = (  -0.1250000  -0.2165065   0.0000000), wk =   0.0937500
        k(    7) = (  -0.1250000  -0.3608441   0.0000000), wk =   0.1875000
        k(    8) = (  -0.1250000   0.6495194   0.0000000), wk =   0.1875000
        k(    9) = (  -0.2500000   0.7216882   0.0000000), wk =   0.0937500
        k(   10) = (  -0.2500000   0.5773505   0.0000000), wk =   0.0937500

                       cryst. coord.
        k(    1) = (   0.0000000   0.0000000   0.0000000), wk =   0.0156250
        k(    2) = (   0.0000000   0.1250000   0.0000000), wk =   0.0937500
        k(    3) = (   0.0000000   0.2500000   0.0000000), wk =   0.0937500
        k(    4) = (   0.0000000   0.3750000   0.0000000), wk =   0.0937500
        k(    5) = (   0.0000000  -0.5000000   0.0000000), wk =   0.0468750
        k(    6) = (   0.1250000   0.2500000   0.0000000), wk =   0.0937500
        k(    7) = (   0.1250000   0.3750000   0.0000000), wk =   0.1875000
        k(    8) = (   0.1250000  -0.5000000   0.0000000), wk =   0.1875000
        k(    9) = (   0.2500000  -0.5000000   0.0000000), wk =   0.0937500
        k(   10) = (   0.2500000  -0.3750000   0.0000000), wk =   0.0937500

     Dense  grid:   116883 G-vectors     FFT dimensions: (  36,  36, 240)

     Dynamical RAM for                 wfc:       2.69 MB

     Dynamical RAM for     wfc (w. buffer):      29.54 MB

     Dynamical RAM for           str. fact:       0.13 MB

     Dynamical RAM for           local pot:       0.00 MB

     Dynamical RAM for          nlocal pot:       3.08 MB

     Dynamical RAM for                qrad:       7.02 MB

     Dynamical RAM for          rho,v,vnew:       1.83 MB

     Dynamical RAM for               rhoin:       0.61 MB

     Dynamical RAM for            rho*nmix:       4.06 MB

     Dynamical RAM for           G-vectors:       0.27 MB

     Dynamical RAM for          h,s,v(r/c):      15.19 MB

     Dynamical RAM for          <psi|beta>:       1.45 MB

     Dynamical RAM for                 psi:      10.74 MB

     Dynamical RAM for                hpsi:      10.74 MB

     Dynamical RAM for                spsi:      10.74 MB

     Dynamical RAM for      wfcinit/wfcrot:       5.78 MB

     Dynamical RAM for           addusdens:      39.26 MB

     Estimated static dynamical RAM per process >      47.43 MB

     Estimated max dynamical RAM per process >      96.29 MB

     Estimated total dynamical RAM >       2.63 GB

     Initial potential from superposition of free atoms

     starting charge  143.99419, renormalised to  144.00000
     Starting wfcs are  180 randomized atomic wfcs

     total cpu time spent up to now is        5.5 secs

     Self-consistent Calculation

     iteration #  1     ecut=    50.00 Ry     beta= 0.70
     Davidson diagonalization with overlap
     ethr =  1.00E-02,  avg # of iterations =  2.0

     total cpu time spent up to now is       12.2 secs

     total energy              =   -1115.51209335 Ry
     Harris-Foulkes estimate   =   -1116.64608355 Ry
     estimated scf accuracy    <       1.44419298 Ry

     iteration #  2     ecut=    50.00 Ry     beta= 0.70
     Davidson diagonalization with overlap
     ethr =  1.00E-03,  avg # of iterations =  4.5

     total cpu time spent up to now is       24.7 secs

     total energy              =   -1113.25827312 Ry
     Harris-Foulkes estimate   =   -1119.15620454 Ry
     estimated scf accuracy    <      28.25611828 Ry

     iteration #  3     ecut=    50.00 Ry     beta= 0.70
     Davidson diagonalization with overlap
     ethr =  1.00E-03,  avg # of iterations =  4.4

     total cpu time spent up to now is       36.9 secs

     total energy              =   -1116.24504495 Ry
     Harris-Foulkes estimate   =   -1116.67962531 Ry
     estimated scf accuracy    <       1.69219426 Ry

     iteration #  4     ecut=    50.00 Ry     beta= 0.70
     Davidson diagonalization with overlap
     ethr =  1.00E-03,  avg # of iterations =  3.1

     total cpu time spent up to now is       45.3 secs

     total energy              =   -1116.43614828 Ry
     Harris-Foulkes estimate   =   -1116.44392649 Ry
     estimated scf accuracy    <       0.02902686 Ry

     iteration #  5     ecut=    50.00 Ry     beta= 0.70
     Davidson diagonalization with overlap
     ethr =  2.02E-05,  avg # of iterations =  6.7

     total cpu time spent up to now is       59.4 secs

     total energy              =   -1116.38751802 Ry
     Harris-Foulkes estimate   =   -1116.49202400 Ry
     estimated scf accuracy    <       1.77525570 Ry

     iteration #  6     ecut=    50.00 Ry     beta= 0.70
     Davidson diagonalization with overlap
     ethr =  2.02E-05,  avg # of iterations =  5.8

     total cpu time spent up to now is       70.6 secs

     total energy              =   -1116.44698112 Ry
     Harris-Foulkes estimate   =   -1116.44787260 Ry
     estimated scf accuracy    <       0.00770637 Ry

     iteration #  7     ecut=    50.00 Ry     beta= 0.70
     Davidson diagonalization with overlap
     ethr =  5.35E-06,  avg # of iterations =  3.8

     total cpu time spent up to now is       79.2 secs

     total energy              =   -1116.44666913 Ry
     Harris-Foulkes estimate   =   -1116.44798560 Ry
     estimated scf accuracy    <       0.00699711 Ry

     iteration #  8     ecut=    50.00 Ry     beta= 0.70
     Davidson diagonalization with overlap
     ethr =  4.86E-06,  avg # of iterations =  3.5

     total cpu time spent up to now is       87.6 secs

     total energy              =   -1116.44725159 Ry
     Harris-Foulkes estimate   =   -1116.44756437 Ry
     estimated scf accuracy    <       0.00164982 Ry

     iteration #  9     ecut=    50.00 Ry     beta= 0.70
     Davidson diagonalization with overlap
     ethr =  1.15E-06,  avg # of iterations =  3.1

     total cpu time spent up to now is       96.4 secs

     total energy              =   -1116.44740965 Ry
     Harris-Foulkes estimate   =   -1116.44744741 Ry
     estimated scf accuracy    <       0.00015832 Ry

     iteration # 10     ecut=    50.00 Ry     beta= 0.70
     Davidson diagonalization with overlap
     ethr =  1.10E-07,  avg # of iterations =  3.5

     total cpu time spent up to now is      105.0 secs

     total energy              =   -1116.44742625 Ry
     Harris-Foulkes estimate   =   -1116.44742997 Ry
     estimated scf accuracy    <       0.00002511 Ry

     iteration # 11     ecut=    50.00 Ry     beta= 0.70
     Davidson diagonalization with overlap
     ethr =  1.74E-08,  avg # of iterations =  4.5

     total cpu time spent up to now is      114.8 secs

     total energy              =   -1116.44742978 Ry
     Harris-Foulkes estimate   =   -1116.44743053 Ry
     estimated scf accuracy    <       0.00000196 Ry

     iteration # 12     ecut=    50.00 Ry     beta= 0.70
     Davidson diagonalization with overlap
     ethr =  1.36E-09,  avg # of iterations =  3.8

     total cpu time spent up to now is      124.6 secs

     total energy              =   -1116.44743016 Ry
     Harris-Foulkes estimate   =   -1116.44743028 Ry
     estimated scf accuracy    <       0.00000087 Ry

     iteration # 13     ecut=    50.00 Ry     beta= 0.70
     Davidson diagonalization with overlap
     ethr =  6.07E-10,  avg # of iterations =  2.7

     total cpu time spent up to now is      132.5 secs

     total energy              =   -1116.44743021 Ry
     Harris-Foulkes estimate   =   -1116.44743023 Ry
     estimated scf accuracy    <       0.00000015 Ry

     iteration # 14     ecut=    50.00 Ry     beta= 0.70
     Davidson diagonalization with overlap
     ethr =  1.06E-10,  avg # of iterations =  4.1

     total cpu time spent up to now is      141.0 secs

     End of self-consistent calculation

          k = 0.0000 0.0000 0.0000 ( 17107 PWs)   bands (ev):

   -16.5979 -16.5979 -16.5978 -16.5978 -16.5978 -16.5978 -16.5977 -16.5977
   -16.5977 -16.5977 -16.5976 -16.5976 -16.5842 -16.5842 -16.5842 -16.5842
   -16.5841 -16.5841 -16.5819 -16.5819 -16.5819 -16.5819 -16.5818 -16.5818
   -13.6264 -13.6264 -13.6263 -13.6263 -13.6263 -13.6263 -13.6260 -13.6260
   -13.6260 -13.6260 -13.6259 -13.6259 -13.6055 -13.6055 -13.6055 -13.6055
   -13.6055 -13.6055 -13.6033 -13.6033 -13.6033 -13.6033 -13.6032 -13.6032
   -13.6006 -13.6006 -13.6006 -13.6006 -13.6005 -13.6005 -13.5983 -13.5983
   -13.5982 -13.5982 -13.5982 -13.5982  -6.3922  -6.3922  -6.2997  -6.2997
    -6.2997  -6.2997  -5.7017  -5.7017  -5.7017  -5.7017  -5.1666  -5.1666
    -5.1498  -5.1498  -4.5686  -4.5686  -4.5686  -4.5686  -2.2427  -2.2427
    -2.2427  -2.2427  -1.7859  -1.7859  -1.0069  -1.0069  -0.6390  -0.6390
    -0.6390  -0.6390   4.8176   4.8176   4.8176   4.8176   5.1862   5.1862
     5.4122   5.4122   5.7138   5.7138   5.7138   5.7138   5.9910   5.9910
     5.9910   5.9910   6.0384   6.0384   6.1528   6.1528   6.1801   6.1801
     6.1801   6.1801   6.1976   6.1976   6.4477   6.4477   6.4477   6.4477
     6.5159   6.5159   6.5512   6.5512   6.5512   6.5512   6.5855   6.5855
     6.5855   6.5855   6.8110   6.8110   7.1198   7.1198   7.1199   7.1199
     7.2090   7.2090   7.3897   7.3897   7.3897   7.3897   7.5065   7.5065

     occupation numbers 
     1.0000   1.0000   1.0000   1.0000   1.0000   1.0000   1.0000   1.0000
     1.0000   1.0000   1.0000   1.0000   1.0000   1.0000   1.0000   1.0000
     1.0000   1.0000   1.0000   1.0000   1.0000   1.0000   1.0000   1.0000
     1.0000   1.0000   1.0000   1.0000   1.0000   1.0000   1.0000   1.0000
     1.0000   1.0000   1.0000   1.0000   1.0000   1.0000   1.0000   1.0000
     1.0000   1.0000   1.0000   1.0000   1.0000   1.0000   1.0000   1.0000
     1.0000   1.0000   1.0000   1.0000   1.0000   1.0000   1.0000   1.0000
     1.0000   1.0000   1.0000   1.0000   1.0000   1.0000   1.0000   1.0000
     1.0000   1.0000   1.0000   1.0000   1.0000   1.0000   1.0000   1.0000
     1.0000   1.0000   1.0000   1.0000   1.0000   1.0000   1.0000   1.0000
     1.0000   1.0000   1.0000   1.0000   1.0000   1.0000   1.0000   1.0000
     1.0000   1.0000   1.0000   1.0000   1.0000   1.0000   1.0000   1.0000
     1.0000   1.0000   1.0000   1.0000   1.0000   1.0000   1.0000   1.0000
     1.0000   1.0000   1.0000   1.0000   1.0000   1.0000   1.0000   1.0000
     1.0000   1.0000   1.0000   1.0000   1.0000   1.0000   1.0000   1.0000
     1.0000   1.0000   1.0000   1.0000   1.0000   1.0000   1.0000   1.0000
     1.0000   1.0000   1.0000   1.0000   1.0000   1.0000   1.0000   1.0000
     1.0000   1.0000   1.0000   1.0000   1.0000   1.0000   1.0000   1.0000

          k = 0.0000-0.1443 0.0000 ( 17081 PWs)   bands (ev):

   -16.5970 -16.5970 -16.5970 -16.5970 -16.5970 -16.5970 -16.5968 -16.5968
   -16.5968 -16.5968 -16.5967 -16.5967 -16.5841 -16.5841 -16.5841 -16.5841
   -16.5841 -16.5841 -16.5821 -16.5821 -16.5821 -16.5821 -16.5820 -16.5820
   -13.6245 -13.6245 -13.6245 -13.6245 -13.6244 -13.6244 -13.6240 -13.6240
   -13.6239 -13.6239 -13.6239 -13.6239 -13.6053 -13.6053 -13.6053 -13.6053
   -13.6052 -13.6052 -13.6036 -13.6036 -13.6035 -13.6035 -13.6034 -13.6034
   -13.6011 -13.6011 -13.6011 -13.6011 -13.6010 -13.6010 -13.5995 -13.5994
   -13.5994 -13.5994 -13.5994 -13.5994  -6.2591  -6.2591  -6.1690  -6.1690
    -6.1682  -6.1682  -5.5865  -5.5865  -5.5835  -5.5835  -5.0689  -5.0689
    -5.0540  -5.0540  -4.5081  -4.5081  -4.5025  -4.5025  -2.2304  -2.2304
    -2.2145  -2.2145  -1.8321  -1.8321  -1.1361  -1.1361  -0.8561  -0.8561
    -0.8368  -0.8368   4.6630   4.6630   4.7079   4.7079   4.8113   4.8113
     4.8152   4.8152   4.8676   4.8676   4.9240   4.9240   5.2779   5.2779
     5.4975   5.4975   5.5397   5.5397   5.7147   5.7147   5.7986   5.7986
     5.8598   5.8598   5.9643   5.9643   6.1280   6.1280   6.3208   6.3208
     6.3402   6.3402   6.4450   6.4450   6.5237   6.5237   6.6819   6.6819
     6.7722   6.7722   6.9051   6.9051   6.9729   6.9729   7.1317   7.1317
     7.2340   7.2340   7.3222   7.3222   7.4213   7.4213   7.6873   7.6873

     occupation numbers 
     1.0000   1.0000   1.0000   1.0000   1.0000   1.0000   1.0000   1.0000
     1.0000   1.0000   1.0000   1.0000   1.0000   1.0000   1.0000   1.0000
     1.0000   1.0000   1.0000   1.0000   1.0000   1.0000   1.0000   1.0000
     1.0000   1.0000   1.0000   1.0000   1.0000   1.0000   1.0000   1.0000
     1.0000   1.0000   1.0000   1.0000   1.0000   1.0000   1.0000   1.0000
     1.0000   1.0000   1.0000   1.0000   1.0000   1.0000   1.0000   1.0000
     1.0000   1.0000   1.0000   1.0000   1.0000   1.0000   1.0000   1.0000
     1.0000   1.0000   1.0000   1.0000   1.0000   1.0000   1.0000   1.0000
     1.0000   1.0000   1.0000   1.0000   1.0000   1.0000   1.0000   1.0000
     1.0000   1.0000   1.0000   1.0000   1.0000   1.0000   1.0000   1.0000
     1.0000   1.0000   1.0000   1.0000   1.0000   1.0000   1.0000   1.0000
     1.0000   1.0000   1.0000   1.0000   1.0000   1.0000   1.0000   1.0000
     1.0000   1.0000   1.0000   1.0000   1.0000   1.0000   1.0000   1.0000
     1.0000   1.0000   1.0000   1.0000   1.0000   1.0000   1.0000   1.0000
     1.0000   1.0000   1.0000   1.0000   1.0000   1.0000   1.0000   1.0000
     1.0000   1.0000   1.0000   1.0000   1.0000   1.0000   1.0000   1.0000
     1.0000   1.0000   1.0000   1.0000   1.0000   1.0000   1.0000   1.0000
     1.0000   1.0000   1.0000   1.0000   1.0000   1.0000   1.0000   1.0000

          k = 0.0000-0.2887 0.0000 ( 17103 PWs)   bands (ev):

   -16.5952 -16.5952 -16.5952 -16.5952 -16.5951 -16.5951 -16.5949 -16.5949
   -16.5949 -16.5949 -16.5948 -16.5948 -16.5840 -16.5840 -16.5839 -16.5839
   -16.5839 -16.5839 -16.5825 -16.5825 -16.5825 -16.5825 -16.5824 -16.5824
   -13.6217 -13.6217 -13.6217 -13.6217 -13.6217 -13.6217 -13.6206 -13.6206
   -13.6206 -13.6206 -13.6206 -13.6206 -13.6069 -13.6069 -13.6069 -13.6069
   -13.6068 -13.6068 -13.6054 -13.6054 -13.6053 -13.6053 -13.6053 -13.6053
   -13.6001 -13.6001 -13.6000 -13.6000 -13.6000 -13.6000 -13.5981 -13.5981
   -13.5980 -13.5980 -13.5980 -13.5980  -5.8777  -5.8777  -5.7993  -5.7993
    -5.7921  -5.7921  -5.2741  -5.2741  -5.2482  -5.2482  -4.8616  -4.8616
    -4.7536  -4.7536  -4.3815  -4.3815  -4.3413  -4.3413  -2.2704  -2.2704
    -2.1646  -2.1646  -2.0327  -2.0327  -1.4981  -1.4981  -1.4438  -1.4438
    -1.3454  -1.3454   3.5126   3.5126   3.6845   3.6845   3.7191   3.7191
     4.2723   4.2723   4.3420   4.3420   4.4223   4.4223   4.5822   4.5822
     4.6852   4.6852   5.0255   5.0255   5.1728   5.1728   5.2215   5.2215
     5.2404   5.2404   5.4526   5.4526   5.6846   5.6846   5.7593   5.7593
     5.7711   5.7711   6.1118   6.1118   6.1940   6.1940   6.3029   6.3029
     6.4910   6.4910   6.5600   6.5600   6.8540   6.8540   6.9482   6.9482
     7.0507   7.0507   7.1361   7.1361   7.1945   7.1945   7.7505   7.7505

     occupation numbers 
     1.0000   1.0000   1.0000   1.0000   1.0000   1.0000   1.0000   1.0000
     1.0000   1.0000   1.0000   1.0000   1.0000   1.0000   1.0000   1.0000
     1.0000   1.0000   1.0000   1.0000   1.0000   1.0000   1.0000   1.0000
     1.0000   1.0000   1.0000   1.0000   1.0000   1.0000   1.0000   1.0000
     1.0000   1.0000   1.0000   1.0000   1.0000   1.0000   1.0000   1.0000
     1.0000   1.0000   1.0000   1.0000   1.0000   1.0000   1.0000   1.0000
     1.0000   1.0000   1.0000   1.0000   1.0000   1.0000   1.0000   1.0000
     1.0000   1.0000   1.0000   1.0000   1.0000   1.0000   1.0000   1.0000
     1.0000   1.0000   1.0000   1.0000   1.0000   1.0000   1.0000   1.0000
     1.0000   1.0000   1.0000   1.0000   1.0000   1.0000   1.0000   1.0000
     1.0000   1.0000   1.0000   1.0000   1.0000   1.0000   1.0000   1.0000
     1.0000   1.0000   1.0000   1.0000   1.0000   1.0000   1.0000   1.0000
     1.0000   1.0000   1.0000   1.0000   1.0000   1.0000   1.0000   1.0000
     1.0000   1.0000   1.0000   1.0000   1.0000   1.0000   1.0000   1.0000
     1.0000   1.0000   1.0000   1.0000   1.0000   1.0000   1.0000   1.0000
     1.0000   1.0000   1.0000   1.0000   1.0000   1.0000   1.0000   1.0000
     1.0000   1.0000   1.0000   1.0000   1.0000   1.0000   1.0000   1.0000
     1.0000   1.0000   1.0000   1.0000   1.0000   1.0000   1.0000   1.0000

          k = 0.0000-0.4330 0.0000 ( 17119 PWs)   bands (ev):

   -16.5935 -16.5935 -16.5935 -16.5935 -16.5934 -16.5934 -16.5933 -16.5933
   -16.5933 -16.5933 -16.5932 -16.5932 -16.5836 -16.5835 -16.5835 -16.5835
   -16.5835 -16.5835 -16.5829 -16.5829 -16.5828 -16.5828 -16.5828 -16.5828
   -13.6219 -13.6219 -13.6219 -13.6219 -13.6219 -13.6219 -13.6201 -13.6201
   -13.6200 -13.6200 -13.6200 -13.6200 -13.6090 -13.6090 -13.6089 -13.6089
   -13.6089 -13.6089 -13.6058 -13.6058 -13.6057 -13.6057 -13.6057 -13.6057
   -13.5970 -13.5970 -13.5970 -13.5970 -13.5970 -13.5970 -13.5938 -13.5938
   -13.5937 -13.5937 -13.5936 -13.5936  -5.3242  -5.3242  -5.2794  -5.2794
    -5.2584  -5.2584  -4.8681  -4.8681  -4.7957  -4.7957  -4.6602  -4.6602
    -4.4019  -4.4019  -4.3217  -4.3217  -4.2472  -4.2472  -2.4704  -2.4704
    -2.4236  -2.4236  -2.3573  -2.3573  -1.9871  -1.9871  -1.9528  -1.9528
    -1.8795  -1.8795   2.6666   2.6666   2.7688   2.7688   2.9675   2.9675
     3.7148   3.7148   3.8570   3.8570   3.9792   3.9792   4.2646   4.2646
     4.2786   4.2786   4.6529   4.6529   4.7578   4.7578   4.7933   4.7933
     4.8141   4.8141   4.9488   4.9488   5.2367   5.2367   5.4535   5.4535
     5.4623   5.4623   5.5517   5.5517   5.7700   5.7700   5.9712   5.9712
     6.1170   6.1170   6.4731   6.4731   6.6587   6.6587   6.6967   6.6967
     6.7596   6.7596   6.9809   6.9809   7.1368   7.1368   7.4730   7.4730

     occupation numbers 
     1.0000   1.0000   1.0000   1.0000   1.0000   1.0000   1.0000   1.0000
     1.0000   1.0000   1.0000   1.0000   1.0000   1.0000   1.0000   1.0000
     1.0000   1.0000   1.0000   1.0000   1.0000   1.0000   1.0000   1.0000
     1.0000   1.0000   1.0000   1.0000   1.0000   1.0000   1.0000   1.0000
     1.0000   1.0000   1.0000   1.0000   1.0000   1.0000   1.0000   1.0000
     1.0000   1.0000   1.0000   1.0000   1.0000   1.0000   1.0000   1.0000
     1.0000   1.0000   1.0000   1.0000   1.0000   1.0000   1.0000   1.0000
     1.0000   1.0000   1.0000   1.0000   1.0000   1.0000   1.0000   1.0000
     1.0000   1.0000   1.0000   1.0000   1.0000   1.0000   1.0000   1.0000
     1.0000   1.0000   1.0000   1.0000   1.0000   1.0000   1.0000   1.0000
     1.0000   1.0000   1.0000   1.0000   1.0000   1.0000   1.0000   1.0000
     1.0000   1.0000   1.0000   1.0000   1.0000   1.0000   1.0000   1.0000
     1.0000   1.0000   1.0000   1.0000   1.0000   1.0000   1.0000   1.0000
     1.0000   1.0000   1.0000   1.0000   1.0000   1.0000   1.0000   1.0000
     1.0000   1.0000   1.0000   1.0000   1.0000   1.0000   1.0000   1.0000
     1.0000   1.0000   1.0000   1.0000   1.0000   1.0000   1.0000   1.0000
     1.0000   1.0000   1.0000   1.0000   1.0000   1.0000   1.0000   1.0000
     1.0000   1.0000   1.0000   1.0000   1.0000   1.0000   1.0000   1.0000

          k = 0.0000 0.5774 0.0000 ( 17160 PWs)   bands (ev):

   -16.5928 -16.5928 -16.5928 -16.5928 -16.5928 -16.5928 -16.5927 -16.5927
   -16.5927 -16.5927 -16.5927 -16.5927 -16.5832 -16.5832 -16.5832 -16.5832
   -16.5832 -16.5832 -16.5831 -16.5831 -16.5830 -16.5830 -16.5830 -16.5830
   -13.6229 -13.6229 -13.6229 -13.6229 -13.6228 -13.6228 -13.6207 -13.6207
   -13.6207 -13.6207 -13.6207 -13.6207 -13.6094 -13.6094 -13.6094 -13.6094
   -13.6093 -13.6093 -13.6055 -13.6055 -13.6055 -13.6055 -13.6055 -13.6055
   -13.5953 -13.5953 -13.5953 -13.5953 -13.5952 -13.5952 -13.5916 -13.5916
   -13.5915 -13.5915 -13.5915 -13.5915  -4.9192  -4.9192  -4.9192  -4.9192
    -4.9132  -4.9132  -4.6163  -4.6163  -4.5987  -4.5987  -4.5986  -4.5986
    -4.3348  -4.3348  -4.3348  -4.3348  -4.3133  -4.3133  -2.7160  -2.7160
    -2.6332  -2.6332  -2.6332  -2.6332  -2.1492  -2.1492  -2.1492  -2.1492
    -2.0676  -2.0676   2.4121   2.4121   2.4121   2.4121   2.7001   2.7001
     3.4785   3.4785   3.7708   3.7708   3.9191   3.9191   3.9192   3.9192
     4.2670   4.2670   4.2671   4.2671   4.5933   4.5933   4.7058   4.7058
     4.7058   4.7058   4.8603   4.8603   4.8604   4.8604   5.4115   5.4115
     5.4115   5.4115   5.5261   5.5261   5.8327   5.8327   5.8373   5.8373
     5.8373   5.8373   6.0989   6.0989   6.3625   6.3625   6.7508   6.7508
     6.7508   6.7508   7.0565   7.0565   7.2480   7.2480   7.2480   7.2480

     occupation numbers 
     1.0000   1.0000   1.0000   1.0000   1.0000   1.0000   1.0000   1.0000
     1.0000   1.0000   1.0000   1.0000   1.0000   1.0000   1.0000   1.0000
     1.0000   1.0000   1.0000   1.0000   1.0000   1.0000   1.0000   1.0000
     1.0000   1.0000   1.0000   1.0000   1.0000   1.0000   1.0000   1.0000
     1.0000   1.0000   1.0000   1.0000   1.0000   1.0000   1.0000   1.0000
     1.0000   1.0000   1.0000   1.0000   1.0000   1.0000   1.0000   1.0000
     1.0000   1.0000   1.0000   1.0000   1.0000   1.0000   1.0000   1.0000
     1.0000   1.0000   1.0000   1.0000   1.0000   1.0000   1.0000   1.0000
     1.0000   1.0000   1.0000   1.0000   1.0000   1.0000   1.0000   1.0000
     1.0000   1.0000   1.0000   1.0000   1.0000   1.0000   1.0000   1.0000
     1.0000   1.0000   1.0000   1.0000   1.0000   1.0000   1.0000   1.0000
     1.0000   1.0000   1.0000   1.0000   1.0000   1.0000   1.0000   1.0000
     1.0000   1.0000   1.0000   1.0000   1.0000   1.0000   1.0000   1.0000
     1.0000   1.0000   1.0000   1.0000   1.0000   1.0000   1.0000   1.0000
     1.0000   1.0000   1.0000   1.0000   1.0000   1.0000   1.0000   1.0000
     1.0000   1.0000   1.0000   1.0000   1.0000   1.0000   1.0000   1.0000
     1.0000   1.0000   1.0000   1.0000   1.0000   1.0000   1.0000   1.0000
     1.0000   1.0000   1.0000   1.0000   1.0000   1.0000   1.0000   1.0000

          k =-0.1250-0.2165 0.0000 ( 17105 PWs)   bands (ev):

   -16.5957 -16.5957 -16.5957 -16.5957 -16.5957 -16.5957 -16.5954 -16.5954
   -16.5954 -16.5954 -16.5954 -16.5954 -16.5840 -16.5840 -16.5840 -16.5840
   -16.5840 -16.5840 -16.5824 -16.5824 -16.5824 -16.5824 -16.5823 -16.5823
   -13.6221 -13.6221 -13.6221 -13.6221 -13.6221 -13.6221 -13.6212 -13.6212
   -13.6212 -13.6212 -13.6212 -13.6212 -13.6059 -13.6059 -13.6059 -13.6059
   -13.6059 -13.6059 -13.6046 -13.6045 -13.6045 -13.6045 -13.6044 -13.6044
   -13.6008 -13.6007 -13.6007 -13.6007 -13.6007 -13.6007 -13.5997 -13.5997
   -13.5997 -13.5997 -13.5996 -13.5996  -6.0014  -6.0014  -5.9161  -5.9161
    -5.9161  -5.9161  -5.3642  -5.3642  -5.3642  -5.3642  -4.9183  -4.9183
    -4.8521  -4.8521  -4.3996  -4.3996  -4.3996  -4.3996  -2.2106  -2.2106
    -2.2105  -2.2105  -1.9404  -1.9404  -1.4032  -1.4032  -1.2241  -1.2241
    -1.2240  -1.2240   4.0365   4.0365   4.0365   4.0366   4.2485   4.2485
     4.3445   4.3445   4.3446   4.3446   4.3810   4.3810   4.6831   4.6831
     4.7815   4.7815   4.7815   4.7815   5.1666   5.1666   5.5186   5.5186
     5.5187   5.5187   5.5996   5.5996   5.8474   5.8474   5.8474   5.8474
     5.8725   5.8725   6.1734   6.1734   6.1734   6.1734   6.6023   6.6023
     6.6024   6.6024   6.9144   6.9144   6.9144   6.9144   7.0673   7.0673
     7.0673   7.0673   7.1781   7.1781   7.3860   7.3860   7.5024   7.5024

     occupation numbers 
     1.0000   1.0000   1.0000   1.0000   1.0000   1.0000   1.0000   1.0000
     1.0000   1.0000   1.0000   1.0000   1.0000   1.0000   1.0000   1.0000
     1.0000   1.0000   1.0000   1.0000   1.0000   1.0000   1.0000   1.0000
     1.0000   1.0000   1.0000   1.0000   1.0000   1.0000   1.0000   1.0000
     1.0000   1.0000   1.0000   1.0000   1.0000   1.0000   1.0000   1.0000
     1.0000   1.0000   1.0000   1.0000   1.0000   1.0000   1.0000   1.0000
     1.0000   1.0000   1.0000   1.0000   1.0000   1.0000   1.0000   1.0000
     1.0000   1.0000   1.0000   1.0000   1.0000   1.0000   1.0000   1.0000
     1.0000   1.0000   1.0000   1.0000   1.0000   1.0000   1.0000   1.0000
     1.0000   1.0000   1.0000   1.0000   1.0000   1.0000   1.0000   1.0000
     1.0000   1.0000   1.0000   1.0000   1.0000   1.0000   1.0000   1.0000
     1.0000   1.0000   1.0000   1.0000   1.0000   1.0000   1.0000   1.0000
     1.0000   1.0000   1.0000   1.0000   1.0000   1.0000   1.0000   1.0000
     1.0000   1.0000   1.0000   1.0000   1.0000   1.0000   1.0000   1.0000
     1.0000   1.0000   1.0000   1.0000   1.0000   1.0000   1.0000   1.0000
     1.0000   1.0000   1.0000   1.0000   1.0000   1.0000   1.0000   1.0000
     1.0000   1.0000   1.0000   1.0000   1.0000   1.0000   1.0000   1.0000
     1.0000   1.0000   1.0000   1.0000   1.0000   1.0000   1.0000   1.0000

          k =-0.1250-0.3608 0.0000 ( 17115 PWs)   bands (ev):

   -16.5940 -16.5940 -16.5940 -16.5940 -16.5939 -16.5939 -16.5936 -16.5935
   -16.5935 -16.5935 -16.5935 -16.5935 -16.5838 -16.5838 -16.5838 -16.5838
   -16.5837 -16.5837 -16.5828 -16.5828 -16.5828 -16.5828 -16.5828 -16.5828
   -13.6207 -13.6207 -13.6206 -13.6206 -13.6206 -13.6206 -13.6187 -13.6187
   -13.6187 -13.6187 -13.6187 -13.6187 -13.6079 -13.6079 -13.6078 -13.6078
   -13.6078 -13.6078 -13.6056 -13.6056 -13.6056 -13.6056 -13.6056 -13.6056
   -13.5993 -13.5993 -13.5992 -13.5992 -13.5992 -13.5992 -13.5970 -13.5970
   -13.5970 -13.5970 -13.5969 -13.5969  -5.5283  -5.5283  -5.4637  -5.4637
    -5.4547  -5.4547  -4.9965  -4.9965  -4.9650  -4.9650  -4.6982  -4.6982
    -4.5208  -4.5208  -4.2940  -4.2940  -4.2542  -4.2542  -2.3243  -2.3243
    -2.2316  -2.2316  -2.2250  -2.2250  -1.8630  -1.8630  -1.8439  -1.8439
    -1.7862  -1.7862   3.1046   3.1046   3.1916   3.1916   3.3619   3.3619
     3.8164   3.8164   3.8763   3.8763   4.0759   4.0759   4.0795   4.0795
     4.2573   4.2573   4.5400   4.5400   4.5493   4.5493   4.7190   4.7190
     4.9156   4.9156   5.1016   5.1016   5.1864   5.1864   5.5908   5.5908
     5.6739   5.6739   5.7186   5.7186   5.9474   5.9474   6.1036   6.1036
     6.2305   6.2305   6.3861   6.3861   6.6885   6.6885   6.8704   6.8704
     6.9943   6.9943   7.2471   7.2471   7.2640   7.2640   7.4015   7.4015

     occupation numbers 
     1.0000   1.0000   1.0000   1.0000   1.0000   1.0000   1.0000   1.0000
     1.0000   1.0000   1.0000   1.0000   1.0000   1.0000   1.0000   1.0000
     1.0000   1.0000   1.0000   1.0000   1.0000   1.0000   1.0000   1.0000
     1.0000   1.0000   1.0000   1.0000   1.0000   1.0000   1.0000   1.0000
     1.0000   1.0000   1.0000   1.0000   1.0000   1.0000   1.0000   1.0000
     1.0000   1.0000   1.0000   1.0000   1.0000   1.0000   1.0000   1.0000
     1.0000   1.0000   1.0000   1.0000   1.0000   1.0000   1.0000   1.0000
     1.0000   1.0000   1.0000   1.0000   1.0000   1.0000   1.0000   1.0000
     1.0000   1.0000   1.0000   1.0000   1.0000   1.0000   1.0000   1.0000
     1.0000   1.0000   1.0000   1.0000   1.0000   1.0000   1.0000   1.0000
     1.0000   1.0000   1.0000   1.0000   1.0000   1.0000   1.0000   1.0000
     1.0000   1.0000   1.0000   1.0000   1.0000   1.0000   1.0000   1.0000
     1.0000   1.0000   1.0000   1.0000   1.0000   1.0000   1.0000   1.0000
     1.0000   1.0000   1.0000   1.0000   1.0000   1.0000   1.0000   1.0000
     1.0000   1.0000   1.0000   1.0000   1.0000   1.0000   1.0000   1.0000
     1.0000   1.0000   1.0000   1.0000   1.0000   1.0000   1.0000   1.0000
     1.0000   1.0000   1.0000   1.0000   1.0000   1.0000   1.0000   1.0000
     1.0000   1.0000   1.0000   1.0000   1.0000   1.0000   1.0000   1.0000

          k =-0.1250 0.6495 0.0000 ( 17114 PWs)   bands (ev):

   -16.5929 -16.5928 -16.5928 -16.5928 -16.5927 -16.5927 -16.5923 -16.5923
   -16.5922 -16.5922 -16.5922 -16.5922 -16.5835 -16.5835 -16.5835 -16.5835
   -16.5834 -16.5834 -16.5831 -16.5831 -16.5831 -16.5831 -16.5830 -16.5830
   -13.6207 -13.6207 -13.6207 -13.6207 -13.6206 -13.6206 -13.6187 -13.6187
   -13.6186 -13.6186 -13.6186 -13.6186 -13.6090 -13.6090 -13.6089 -13.6089
   -13.6089 -13.6089 -13.6058 -13.6058 -13.6058 -13.6058 -13.6057 -13.6057
   -13.5975 -13.5974 -13.5974 -13.5974 -13.5973 -13.5973 -13.5939 -13.5939
   -13.5939 -13.5939 -13.5939 -13.5939  -4.9931  -4.9931  -4.9730  -4.9730
    -4.9622  -4.9622  -4.6232  -4.6232  -4.5893  -4.5893  -4.5566  -4.5566
    -4.2913  -4.2913  -4.2875  -4.2875  -4.2654  -4.2654  -2.6119  -2.6119
    -2.5879  -2.5879  -2.5377  -2.5377  -2.2317  -2.2317  -2.1794  -2.1794
    -2.1632  -2.1632   2.5222   2.5222   2.7035   2.7035   2.7840   2.7841
     3.6764   3.6764   3.6884   3.6884   3.8422   3.8422   3.8805   3.8805
     3.9133   3.9133   3.9772   3.9772   4.1901   4.1901   4.4461   4.4461
     4.7223   4.7223   4.7487   4.7487   5.0877   5.0877   5.1063   5.1063
     5.3533   5.3533   5.4309   5.4309   5.7226   5.7226   5.8121   5.8121
     5.9456   5.9456   6.4453   6.4453   6.4476   6.4476   6.6794   6.6794
     6.9699   6.9699   7.0369   7.0369   7.0383   7.0383   7.3851   7.3851

     occupation numbers 
     1.0000   1.0000   1.0000   1.0000   1.0000   1.0000   1.0000   1.0000
     1.0000   1.0000   1.0000   1.0000   1.0000   1.0000   1.0000   1.0000
     1.0000   1.0000   1.0000   1.0000   1.0000   1.0000   1.0000   1.0000
     1.0000   1.0000   1.0000   1.0000   1.0000   1.0000   1.0000   1.0000
     1.0000   1.0000   1.0000   1.0000   1.0000   1.0000   1.0000   1.0000
     1.0000   1.0000   1.0000   1.0000   1.0000   1.0000   1.0000   1.0000
     1.0000   1.0000   1.0000   1.0000   1.0000   1.0000   1.0000   1.0000
     1.0000   1.0000   1.0000   1.0000   1.0000   1.0000   1.0000   1.0000
     1.0000   1.0000   1.0000   1.0000   1.0000   1.0000   1.0000   1.0000
     1.0000   1.0000   1.0000   1.0000   1.0000   1.0000   1.0000   1.0000
     1.0000   1.0000   1.0000   1.0000   1.0000   1.0000   1.0000   1.0000
     1.0000   1.0000   1.0000   1.0000   1.0000   1.0000   1.0000   1.0000
     1.0000   1.0000   1.0000   1.0000   1.0000   1.0000   1.0000   1.0000
     1.0000   1.0000   1.0000   1.0000   1.0000   1.0000   1.0000   1.0000
     1.0000   1.0000   1.0000   1.0000   1.0000   1.0000   1.0000   1.0000
     1.0000   1.0000   1.0000   1.0000   1.0000   1.0000   1.0000   1.0000
     1.0000   1.0000   1.0000   1.0000   1.0000   1.0000   1.0000   1.0000
     1.0000   1.0000   1.0000   1.0000   1.0000   1.0000   1.0000   1.0000

          k =-0.2500 0.7217 0.0000 ( 17089 PWs)   bands (ev):

   -16.5927 -16.5927 -16.5927 -16.5927 -16.5927 -16.5927 -16.5920 -16.5920
   -16.5919 -16.5919 -16.5919 -16.5919 -16.5838 -16.5838 -16.5837 -16.5837
   -16.5837 -16.5837 -16.5833 -16.5832 -16.5832 -16.5832 -16.5832 -16.5832
   -13.6184 -13.6184 -13.6184 -13.6184 -13.6184 -13.6184 -13.6155 -13.6154
   -13.6154 -13.6154 -13.6154 -13.6154 -13.6087 -13.6087 -13.6087 -13.6087
   -13.6086 -13.6086 -13.6064 -13.6063 -13.6063 -13.6063 -13.6063 -13.6063
   -13.5994 -13.5993 -13.5993 -13.5993 -13.5993 -13.5993 -13.5973 -13.5972
   -13.5972 -13.5972 -13.5972 -13.5972  -5.0477  -5.0477  -5.0103  -5.0103
    -5.0103  -5.0103  -4.6205  -4.6205  -4.6205  -4.6205  -4.5089  -4.5089
    -4.2886  -4.2886  -4.2142  -4.2142  -4.2142  -4.2142  -2.4253  -2.4253
    -2.4253  -2.4253  -2.4118  -2.4118  -2.3488  -2.3488  -2.3323  -2.3323
    -2.3323  -2.3323   2.9071   2.9072   3.0396   3.0396   3.0396   3.0396
     3.2434   3.2434   3.4908   3.4908   3.4908   3.4909   3.7818   3.7818
     3.7818   3.7818   4.1100   4.1100   4.1836   4.1836   4.1836   4.1836
     4.6360   4.6360   4.6478   4.6478   4.6479   4.6479   5.1086   5.1086
     5.2436   5.2436   5.6280   5.6280   5.6280   5.6280   5.8353   5.8353
     6.2367   6.2367   6.4104   6.4104   6.4104   6.4104   6.7176   6.7176
     6.7176   6.7176   7.1905   7.1905   7.1905   7.1905   7.3923   7.3923

     occupation numbers 
     1.0000   1.0000   1.0000   1.0000   1.0000   1.0000   1.0000   1.0000
     1.0000   1.0000   1.0000   1.0000   1.0000   1.0000   1.0000   1.0000
     1.0000   1.0000   1.0000   1.0000   1.0000   1.0000   1.0000   1.0000
     1.0000   1.0000   1.0000   1.0000   1.0000   1.0000   1.0000   1.0000
     1.0000   1.0000   1.0000   1.0000   1.0000   1.0000   1.0000   1.0000
     1.0000   1.0000   1.0000   1.0000   1.0000   1.0000   1.0000   1.0000
     1.0000   1.0000   1.0000   1.0000   1.0000   1.0000   1.0000   1.0000
     1.0000   1.0000   1.0000   1.0000   1.0000   1.0000   1.0000   1.0000
     1.0000   1.0000   1.0000   1.0000   1.0000   1.0000   1.0000   1.0000
     1.0000   1.0000   1.0000   1.0000   1.0000   1.0000   1.0000   1.0000
     1.0000   1.0000   1.0000   1.0000   1.0000   1.0000   1.0000   1.0000
     1.0000   1.0000   1.0000   1.0000   1.0000   1.0000   1.0000   1.0000
     1.0000   1.0000   1.0000   1.0000   1.0000   1.0000   1.0000   1.0000
     1.0000   1.0000   1.0000   1.0000   1.0000   1.0000   1.0000   1.0000
     1.0000   1.0000   1.0000   1.0000   1.0000   1.0000   1.0000   1.0000
     1.0000   1.0000   1.0000   1.0000   1.0000   1.0000   1.0000   1.0000
     1.0000   1.0000   1.0000   1.0000   1.0000   1.0000   1.0000   1.0000
     1.0000   1.0000   1.0000   1.0000   1.0000   1.0000   1.0000   1.0000

          k =-0.2500 0.5774 0.0000 ( 17135 PWs)   bands (ev):

   -16.5922 -16.5922 -16.5921 -16.5921 -16.5921 -16.5921 -16.5913 -16.5913
   -16.5913 -16.5913 -16.5912 -16.5912 -16.5839 -16.5838 -16.5838 -16.5838
   -16.5838 -16.5838 -16.5834 -16.5834 -16.5834 -16.5834 -16.5834 -16.5834
   -13.6157 -13.6157 -13.6157 -13.6157 -13.6157 -13.6157 -13.6146 -13.6146
   -13.6145 -13.6145 -13.6145 -13.6145 -13.6091 -13.6091 -13.6090 -13.6090
   -13.6090 -13.6090 -13.6077 -13.6077 -13.6077 -13.6077 -13.6077 -13.6077
   -13.6000 -13.6000 -13.6000 -13.6000 -13.6000 -13.6000 -13.5971 -13.5971
   -13.5971 -13.5971 -13.5971 -13.5971  -4.7569  -4.7569  -4.7569  -4.7569
    -4.7540  -4.7540  -4.3964  -4.3964  -4.3867  -4.3867  -4.3867  -4.3867
    -4.2509  -4.2509  -4.2508  -4.2508  -4.2427  -4.2427  -2.6343  -2.6343
    -2.6343  -2.6343  -2.6339  -2.6339  -2.4923  -2.4923  -2.4852  -2.4852
    -2.4852  -2.4852   2.7695   2.7695   2.7695   2.7695   3.0574   3.0574
     3.3434   3.3434   3.3434   3.3434   3.3544   3.3544   3.5702   3.5702
     3.5702   3.5702   3.6948   3.6948   3.9065   3.9065   4.3830   4.3830
     4.3830   4.3830   4.4298   4.4298   4.7447   4.7447   4.7447   4.7447
     4.9697   4.9697   5.6289   5.6289   5.6289   5.6289   5.8594   5.8594
     5.8594   5.8594   6.2217   6.2217   6.2217   6.2217   6.7274   6.7274
     6.9799   6.9799   7.0788   7.0788   7.0788   7.0788   7.3320   7.3320

     occupation numbers 
     1.0000   1.0000   1.0000   1.0000   1.0000   1.0000   1.0000   1.0000
     1.0000   1.0000   1.0000   1.0000   1.0000   1.0000   1.0000   1.0000
     1.0000   1.0000   1.0000   1.0000   1.0000   1.0000   1.0000   1.0000
     1.0000   1.0000   1.0000   1.0000   1.0000   1.0000   1.0000   1.0000
     1.0000   1.0000   1.0000   1.0000   1.0000   1.0000   1.0000   1.0000
     1.0000   1.0000   1.0000   1.0000   1.0000   1.0000   1.0000   1.0000
     1.0000   1.0000   1.0000   1.0000   1.0000   1.0000   1.0000   1.0000
     1.0000   1.0000   1.0000   1.0000   1.0000   1.0000   1.0000   1.0000
     1.0000   1.0000   1.0000   1.0000   1.0000   1.0000   1.0000   1.0000
     1.0000   1.0000   1.0000   1.0000   1.0000   1.0000   1.0000   1.0000
     1.0000   1.0000   1.0000   1.0000   1.0000   1.0000   1.0000   1.0000
     1.0000   1.0000   1.0000   1.0000   1.0000   1.0000   1.0000   1.0000
     1.0000   1.0000   1.0000   1.0000   1.0000   1.0000   1.0000   1.0000
     1.0000   1.0000   1.0000   1.0000   1.0000   1.0000   1.0000   1.0000
     1.0000   1.0000   1.0000   1.0000   1.0000   1.0000   1.0000   1.0000
     1.0000   1.0000   1.0000   1.0000   1.0000   1.0000   1.0000   1.0000
     1.0000   1.0000   1.0000   1.0000   1.0000   1.0000   1.0000   1.0000
     1.0000   1.0000   1.0000   1.0000   1.0000   1.0000   1.0000   1.0000

     highest occupied level (ev):     7.7505

!    total energy              =   -1116.44743022 Ry
     Harris-Foulkes estimate   =   -1116.44743023 Ry
     estimated scf accuracy    <          8.0E-09 Ry

     The total energy is the sum of the following terms:

     one-electron contribution =    -396.60489863 Ry
     hartree contribution      =     270.46809170 Ry
     xc contribution           =    -251.03958448 Ry
     ewald contribution        =    -739.27103880 Ry

     convergence has been achieved in  14 iterations

     Writing output data file bise-rel.save/
 
     init_run     :      2.99s CPU      3.20s WALL (       1 calls)
     electrons    :    131.97s CPU    135.53s WALL (       1 calls)

     Called by init_run:
     wfcinit      :      2.62s CPU      2.73s WALL (       1 calls)
     wfcinit:atom :      0.03s CPU      0.03s WALL (      10 calls)
     wfcinit:wfcr :      2.47s CPU      2.58s WALL (      10 calls)
     potinit      :      0.05s CPU      0.06s WALL (       1 calls)
     hinit0       :      0.14s CPU      0.16s WALL (       1 calls)

     Called by electrons:
     c_bands      :    117.28s CPU    120.10s WALL (      14 calls)
     sum_band     :     12.30s CPU     12.99s WALL (      14 calls)
     v_of_rho     :      0.09s CPU      0.09s WALL (      15 calls)
     v_h          :      0.01s CPU      0.01s WALL (      15 calls)
     v_xc         :      0.08s CPU      0.09s WALL (      15 calls)
     newd         :      2.31s CPU      2.35s WALL (      15 calls)
     mix_rho      :      0.11s CPU      0.12s WALL (      14 calls)

     Called by c_bands:
     init_us_2    :      0.53s CPU      0.54s WALL (     290 calls)
     cegterg      :    110.58s CPU    113.36s WALL (     140 calls)

     Called by sum_band:
     sum_band:bec :      1.16s CPU      1.16s WALL (     140 calls)
     addusdens    :      0.77s CPU      0.79s WALL (      14 calls)

     Called by *egterg:
     h_psi        :     49.94s CPU     51.95s WALL (     705 calls)
     s_psi        :      8.23s CPU      8.24s WALL (     705 calls)
     g_psi        :      0.24s CPU      0.24s WALL (     555 calls)
     cdiaghg      :     32.62s CPU     32.89s WALL (     695 calls)
     cegterg:over :      9.08s CPU      9.40s WALL (     555 calls)
     cegterg:upda :      5.48s CPU      5.51s WALL (     555 calls)
     cegterg:last :      2.34s CPU      2.37s WALL (     140 calls)

     Called by h_psi:
     h_psi:pot    :     49.55s CPU     51.54s WALL (     705 calls)
     h_psi:calbec :      6.83s CPU      7.35s WALL (     705 calls)
     vloc_psi     :     35.10s CPU     36.53s WALL (     705 calls)
     add_vuspsi   :      7.62s CPU      7.65s WALL (     705 calls)

     General routines
     calbec       :      9.27s CPU      9.99s WALL (     845 calls)
     fft          :      0.07s CPU      0.08s WALL (     207 calls)
     ffts         :      0.02s CPU      0.02s WALL (      56 calls)
     fftw         :     37.51s CPU     39.21s WALL (  258608 calls)
 
     Parallel routines
     fft_scatt_xy :      4.19s CPU      4.37s WALL (  258871 calls)
     fft_scatt_yz :     13.55s CPU     14.31s WALL (  258871 calls)
 
     PWSCF        :   2m18.12s CPU   2m23.01s WALL

 
   This run was terminated on:  16:50:39  30Jul2019            

=------------------------------------------------------------------------------=
   JOB DONE.
=------------------------------------------------------------------------------=
