
     Program PWSCF v.5.1.1 starts on 17Mar2015 at 11:18:18 

     This program is part of the open-source Quantum ESPRESSO suite
     for quantum simulation of materials; please cite
         "P. Giannozzi et al., J. Phys.:Condens. Matter 21 395502 (2009);
          URL http://www.quantum-espresso.org", 
     in publications or presentations arising from this work. More details at
     http://www.quantum-espresso.org/quote

     Parallel version (MPI), running on    12 processors
     R & G space division:  proc/nbgrp/npool/nimage =      12
     Waiting for input...
     Reading input from standard input
Warning: card &CELL ignored
Warning: card / ignored

     Current dimensions of program PWSCF are:
     Max number of different atomic species (ntypx) = 10
     Max number of k-points (npk) =  40000
     Max angular momentum in pseudopotentials (lmaxx) =  3
               file Mo.rel-pbesol-spn-rrkjus_psl.0.3.0.UPF: wavefunction(s)  4S renormalized

     -------------------------------------
     Parameters for Dispersion Correction:
     -------------------------------------
       atom      VdW radius       C_6     

        Mo         3.097        855.833
        S          3.180        193.230

     Subspace diagonalization in iterative solution of the eigenvalue problem:
     a serial algorithm will be used


     Parallelization info
     --------------------
     sticks:   dense  smooth     PW     G-vecs:    dense   smooth      PW
     Min         201      53     16                87507    11595    1936
     Max         202      54     17                87550    11638    1959
     Sum        2419     637    199              1050269   139349   23371



     bravais-lattice index     =           14
     lattice parameter (alat)  =       5.9468  a.u.
     unit-cell volume          =    1967.7800 (a.u.)^3
     number of atoms/cell      =            6
     number of atomic types    =            2
     number of electrons       =        52.00
     number of Kohn-Sham states=           52
     kinetic-energy cutoff     =      65.0000  Ry
     charge density cutoff     =    1000.0000  Ry
     convergence threshold     =      1.0E-10
     mixing beta               =       0.2000
     number of iterations used =            8  plain     mixing
     Exchange-correlation      = PBESOL ( 1  4 10  8 0 0)
     nstep                     =           50

     Non magnetic calculation with spin-orbit


     celldm(1)=   5.946810  celldm(2)=   1.000000  celldm(3)=  10.804228
     celldm(4)=   0.000000  celldm(5)=   0.000000  celldm(6)=   0.500000

     crystal axes: (cart. coord. in units of alat)
               a(1) = (   1.000000   0.000000   0.000000 )  
               a(2) = (   0.500000   0.866025   0.000000 )  
               a(3) = (   0.000000   0.000000  10.804228 )  

     reciprocal axes: (cart. coord. in units 2 pi/alat)
               b(1) = (  1.000000 -0.577350  0.000000 )  
               b(2) = (  0.000000  1.154701  0.000000 )  
               b(3) = (  0.000000  0.000000  0.092556 )  


     PseudoPot. # 1 for Mo read from file:
     /somefolder/Mo.rel-pbesol-spn-rrkjus_psl.0.3.0.UPF
     MD5 check sum: f74c186b6684bdea8823954e92cd7c49
     Pseudo is Ultrasoft + core correction, Zval = 14.0
     Generated using "atomic" code by A. Dal Corso  v.5.0.99 svn rev. 10869
     Using radial grid of 1229 points, 10 beta functions with: 
                l(1) =   0
                l(2) =   0
                l(3) =   1
                l(4) =   1
                l(5) =   1
                l(6) =   1
                l(7) =   2
                l(8) =   2
                l(9) =   2
               l(10) =   2
     Q(r) pseudized with 0 coefficients 


     PseudoPot. # 2 for  S read from file:
     /somefolder/S.rel-pbesol-n-rrkjus_psl.0.1.UPF
     MD5 check sum: 1c7f1cb74247985bb4b47b03851e150a
     Pseudo is Ultrasoft + core correction, Zval =  6.0
     Generated using "atomic" code by A. Dal Corso  v.5.0.99 svn rev. 10869
     Using radial grid of 1151 points,  6 beta functions with: 
                l(1) =   0
                l(2) =   0
                l(3) =   1
                l(4) =   1
                l(5) =   1
                l(6) =   1
     Q(r) pseudized with 0 coefficients 


     atomic species   valence    mass     pseudopotential
        Mo            14.00     1.00000     Mo( 1.00)
        S              6.00     1.00000      S( 1.00)

      6 Sym. Ops. (no inversion) found


                                    s                        frac. trans.

      isym =  1     identity                                     

 cryst.   s( 1) = (     1          0          0      )
                  (     0          1          0      )
                  (     0          0          1      )

 cart.    s( 1) = (  1.0000000  0.0000000  0.0000000 )
                  (  0.0000000  1.0000000  0.0000000 )
                  (  0.0000000  0.0000000  1.0000000 )


      isym =  2     120 deg rotation - cryst. axis [0,0,1]       

 cryst.   s( 2) = (    -1          1          0      )
                  (    -1          0          0      )
                  (     0          0          1      )

 cart.    s( 2) = ( -0.5000000 -0.8660254  0.0000000 )
                  (  0.8660254 -0.5000000  0.0000000 )
                  (  0.0000000  0.0000000  1.0000000 )


      isym =  3     120 deg rotation - cryst. axis [0,0,-1]      

 cryst.   s( 3) = (     0         -1          0      )
                  (     1         -1          0      )
                  (     0          0          1      )

 cart.    s( 3) = ( -0.5000000  0.8660254  0.0000000 )
                  ( -0.8660254 -0.5000000  0.0000000 )
                  (  0.0000000  0.0000000  1.0000000 )


      isym =  4     inv. 180 deg rotation - cart. axis [1,0,0]   

 cryst.   s( 4) = (    -1          0          0      )
                  (    -1          1          0      )
                  (     0          0          1      )

 cart.    s( 4) = ( -1.0000000  0.0000000  0.0000000 )
                  (  0.0000000  1.0000000  0.0000000 )
                  (  0.0000000  0.0000000  1.0000000 )


      isym =  5     inv. 180 deg rotation - cryst. axis [0,1,0]  

 cryst.   s( 5) = (     0          1          0      )
                  (     1          0          0      )
                  (     0          0          1      )

 cart.    s( 5) = (  0.5000000  0.8660254  0.0000000 )
                  (  0.8660254 -0.5000000  0.0000000 )
                  (  0.0000000  0.0000000  1.0000000 )


      isym =  6     inv. 180 deg rotation - cryst. axis [1,1,0]  

 cryst.   s( 6) = (     1         -1          0      )
                  (     0         -1          0      )
                  (     0          0          1      )

 cart.    s( 6) = (  0.5000000 -0.8660254  0.0000000 )
                  ( -0.8660254 -0.5000000  0.0000000 )
                  (  0.0000000  0.0000000  1.0000000 )


     double point group C_3v (3m)  
     there are  6 classes and  3 irreducible representations
     the character table:

       E     -E    2C3   -2C3  3s_v  -3s_v
                                          
G_4    2.00 -2.00  1.00 -1.00  0.00  0.00
G_5    1.00 -1.00 -1.00  1.00  0.00  0.00
G_6    1.00 -1.00 -1.00  1.00  0.00  0.00

     imaginary part

       E     -E    2C3   -2C3  3s_v  -3s_v
                                          
G_4    0.00  0.00  0.00  0.00  0.00  0.00
G_5    0.00  0.00  0.00  0.00  1.00 -1.00
G_6    0.00  0.00  0.00  0.00 -1.00  1.00

     the symmetry operations in each class:
     E             1
     2C3           2    3
     3s_v          4    5   -6
     3s_v          6   -4   -5
     -E           -1
     -2C3         -2   -3

   Cartesian axes

     site n.     atom                  positions (alat units)
         1           Mo  tau(   1) = (   0.5000000   0.2886751   4.2899139  )
         2           S   tau(   2) = (   1.0000000   0.5773503   3.7962668  )
         3           S   tau(   3) = (   1.0000000   0.5773503   4.7835607  )
         4           Mo  tau(   4) = (   1.0000000   0.5773503   6.5143137  )
         5           S   tau(   5) = (   0.0000000   0.0000000   6.0206666  )
         6           S   tau(   6) = (   0.0000000   0.0000000   7.0079605  )

   Crystallographic axes

     site n.     atom                  positions (cryst. coord.)
         1           Mo  tau(   1) = (  0.3333333  0.3333333  0.3970588  )
         2           S   tau(   2) = (  0.6666667  0.6666667  0.3513686  )
         3           S   tau(   3) = (  0.6666667  0.6666667  0.4427490  )
         4           Mo  tau(   4) = (  0.6666667  0.6666667  0.6029412  )
         5           S   tau(   5) = (  0.0000000  0.0000000  0.5572510  )
         6           S   tau(   6) = (  0.0000000  0.0000000  0.6486313  )

     number of k points=    19
                       cart. coord. in units 2pi/alat
        k(    1) = (   0.0000000   0.0000000   0.0000000), wk =   0.0069444
        k(    2) = (   0.0000000   0.0962250   0.0000000), wk =   0.0416667
        k(    3) = (   0.0000000   0.1924501   0.0000000), wk =   0.0416667
        k(    4) = (   0.0000000   0.2886751   0.0000000), wk =   0.0416667
        k(    5) = (   0.0000000   0.3849002   0.0000000), wk =   0.0416667
        k(    6) = (   0.0000000   0.4811252   0.0000000), wk =   0.0416667
        k(    7) = (   0.0000000  -0.5773503   0.0000000), wk =   0.0208333
        k(    8) = (   0.0833333   0.1443376   0.0000000), wk =   0.0416667
        k(    9) = (   0.0833333   0.2405626   0.0000000), wk =   0.0833333
        k(   10) = (   0.0833333   0.3367877   0.0000000), wk =   0.0833333
        k(   11) = (   0.0833333   0.4330127   0.0000000), wk =   0.0833333
        k(   12) = (   0.0833333  -0.6254628   0.0000000), wk =   0.0833333
        k(   13) = (   0.1666667   0.2886751   0.0000000), wk =   0.0416667
        k(   14) = (   0.1666667   0.3849002   0.0000000), wk =   0.0833333
        k(   15) = (   0.1666667  -0.6735753   0.0000000), wk =   0.0833333
        k(   16) = (   0.1666667  -0.5773503   0.0000000), wk =   0.0416667
        k(   17) = (   0.2500000  -0.7216878   0.0000000), wk =   0.0416667
        k(   18) = (   0.2500000  -0.6254628   0.0000000), wk =   0.0833333
        k(   19) = (   0.3333333  -0.5773503   0.0000000), wk =   0.0138889

                       cryst. coord.
        k(    1) = (   0.0000000   0.0000000   0.0000000), wk =   0.0069444
        k(    2) = (   0.0000000   0.0833333   0.0000000), wk =   0.0416667
        k(    3) = (   0.0000000   0.1666667   0.0000000), wk =   0.0416667
        k(    4) = (   0.0000000   0.2500000   0.0000000), wk =   0.0416667
        k(    5) = (   0.0000000   0.3333333   0.0000000), wk =   0.0416667
        k(    6) = (   0.0000000   0.4166667   0.0000000), wk =   0.0416667
        k(    7) = (   0.0000000  -0.5000000   0.0000000), wk =   0.0208333
        k(    8) = (   0.0833333   0.1666667   0.0000000), wk =   0.0416667
        k(    9) = (   0.0833333   0.2500000   0.0000000), wk =   0.0833333
        k(   10) = (   0.0833333   0.3333333   0.0000000), wk =   0.0833333
        k(   11) = (   0.0833333   0.4166667   0.0000000), wk =   0.0833333
        k(   12) = (   0.0833333  -0.5000000   0.0000000), wk =   0.0833333
        k(   13) = (   0.1666667   0.3333333   0.0000000), wk =   0.0416667
        k(   14) = (   0.1666667   0.4166667   0.0000000), wk =   0.0833333
        k(   15) = (   0.1666667  -0.5000000   0.0000000), wk =   0.0833333
        k(   16) = (   0.1666667  -0.4166667   0.0000000), wk =   0.0416667
        k(   17) = (   0.2500000  -0.5000000   0.0000000), wk =   0.0416667
        k(   18) = (   0.2500000  -0.4166667   0.0000000), wk =   0.0833333
        k(   19) = (   0.3333333  -0.3333333   0.0000000), wk =   0.0138889

     Dense  grid:  1050269 G-vectors     FFT dimensions: (  60,  60, 648)

     Smooth grid:   139349 G-vectors     FFT dimensions: (  32,  32, 360)

     Largest allocated arrays     est. size (Mb)     dimensions
        Kohn-Sham Wavefunctions         2.35 Mb     (    2968,   52)
        NL pseudopotentials             2.81 Mb     (    1484,  124)
        Each V/rho on FFT grid          2.97 Mb     (  194400)
        Each G-vector array             0.67 Mb     (   87520)
        G-vector shells                 0.25 Mb     (   32677)
     Largest temporary arrays     est. size (Mb)     dimensions
        Auxiliary wavefunctions         9.42 Mb     (    2968,  208)
        Each subspace H/S matrix        0.66 Mb     (     208,  208)
        Each <psi_i|beta_j> matrix      0.20 Mb     (     124,   2,   52)
        Arrays for rho mixing          23.73 Mb     (  194400,    8)

     Initial potential from superposition of free atoms
     Check: negative starting charge=   -0.000357

     starting charge   51.99752, renormalised to   52.00000

     negative rho (up, down):  3.569E-04 0.000E+00
     Starting wfc are   84 randomized atomic wfcs

     total cpu time spent up to now is       28.1 secs

     per-process dynamical memory:   145.7 Mb

     Self-consistent Calculation

     iteration #  1     ecut=    65.00 Ry     beta=0.20
     Davidson diagonalization with overlap
     ethr =  1.00E-02,  avg # of iterations =  2.0

     negative rho (up, down):  2.482E-04 0.000E+00

     total cpu time spent up to now is       67.8 secs

     total energy              =    -386.96016602 Ry
     Harris-Foulkes estimate   =    -387.24413435 Ry
     estimated scf accuracy    <       0.91916078 Ry

     iteration #  2     ecut=    65.00 Ry     beta=0.20
     Davidson diagonalization with overlap
     ethr =  1.77E-03,  avg # of iterations =  2.9

     negative rho (up, down):  2.048E-04 0.000E+00

     total cpu time spent up to now is      110.8 secs

     total energy              =    -387.05053872 Ry
     Harris-Foulkes estimate   =    -387.09708775 Ry
     estimated scf accuracy    <       0.18000264 Ry

     iteration #  3     ecut=    65.00 Ry     beta=0.20
     Davidson diagonalization with overlap
     ethr =  3.46E-04,  avg # of iterations =  2.1

     negative rho (up, down):  3.143E-04 0.000E+00

     total cpu time spent up to now is      150.2 secs

     total energy              =    -387.04961057 Ry
     Harris-Foulkes estimate   =    -387.06951258 Ry
     estimated scf accuracy    <       0.05118609 Ry

     iteration #  4     ecut=    65.00 Ry     beta=0.20
     Davidson diagonalization with overlap
     ethr =  9.84E-05,  avg # of iterations =  2.8

     negative rho (up, down):  1.449E-03 0.000E+00

     total cpu time spent up to now is      193.1 secs

     total energy              =    -387.05770087 Ry
     Harris-Foulkes estimate   =    -387.05954196 Ry
     estimated scf accuracy    <       0.00780062 Ry

     iteration #  5     ecut=    65.00 Ry     beta=0.20
     Davidson diagonalization with overlap
     ethr =  1.50E-05,  avg # of iterations =  3.8

     negative rho (up, down):  2.053E-03 0.000E+00

     total cpu time spent up to now is      237.4 secs

     total energy              =    -387.05833774 Ry
     Harris-Foulkes estimate   =    -387.05945116 Ry
     estimated scf accuracy    <       0.00528284 Ry

     iteration #  6     ecut=    65.00 Ry     beta=0.20
     Davidson diagonalization with overlap
     ethr =  1.02E-05,  avg # of iterations =  2.5

     negative rho (up, down):  9.486E-04 0.000E+00

     total cpu time spent up to now is      274.0 secs

     total energy              =    -387.05875963 Ry
     Harris-Foulkes estimate   =    -387.05879622 Ry
     estimated scf accuracy    <       0.00138895 Ry

     iteration #  7     ecut=    65.00 Ry     beta=0.20
     Davidson diagonalization with overlap
     ethr =  2.67E-06,  avg # of iterations =  3.2

     negative rho (up, down):  1.015E-03 0.000E+00

     total cpu time spent up to now is      314.4 secs

     total energy              =    -387.05894092 Ry
     Harris-Foulkes estimate   =    -387.05896203 Ry
     estimated scf accuracy    <       0.00066521 Ry

     iteration #  8     ecut=    65.00 Ry     beta=0.20
     Davidson diagonalization with overlap
     ethr =  1.28E-06,  avg # of iterations =  1.1

     negative rho (up, down):  2.687E-03 0.000E+00

     total cpu time spent up to now is      347.7 secs

     total energy              =    -387.05880533 Ry
     Harris-Foulkes estimate   =    -387.05895734 Ry
     estimated scf accuracy    <       0.00058022 Ry

     iteration #  9     ecut=    65.00 Ry     beta=0.20
     Davidson diagonalization with overlap
     ethr =  1.12E-06,  avg # of iterations =  2.9

     negative rho (up, down):  4.639E-03 0.000E+00

     total cpu time spent up to now is      390.2 secs

     total energy              =    -387.05864740 Ry
     Harris-Foulkes estimate   =    -387.05892895 Ry
     estimated scf accuracy    <       0.00144467 Ry

     iteration # 10     ecut=    65.00 Ry     beta=0.20
     Davidson diagonalization with overlap
     ethr =  1.12E-06,  avg # of iterations =  2.0

     negative rho (up, down):  5.755E-03 0.000E+00

     total cpu time spent up to now is      424.9 secs

     total energy              =    -387.05844247 Ry
     Harris-Foulkes estimate   =    -387.05866410 Ry
     estimated scf accuracy    <       0.00120761 Ry

     iteration # 11     ecut=    65.00 Ry     beta=0.20
     Davidson diagonalization with overlap
     ethr =  1.12E-06,  avg # of iterations =  1.0

     negative rho (up, down):  1.166E-02 0.000E+00

     total cpu time spent up to now is      459.4 secs

     total energy              =    -387.05686183 Ry
     Harris-Foulkes estimate   =    -387.05845487 Ry
     estimated scf accuracy    <       0.00087513 Ry

     iteration # 12     ecut=    65.00 Ry     beta=0.20
     Davidson diagonalization with overlap
     ethr =  1.12E-06,  avg # of iterations =  3.5

     negative rho (up, down):  7.563E-03 0.000E+00

     total cpu time spent up to now is      508.7 secs

     total energy              =    -387.05802618 Ry
     Harris-Foulkes estimate   =    -387.05740114 Ry
     estimated scf accuracy    <       0.00076108 Ry

     iteration # 13     ecut=    65.00 Ry     beta=0.20
     Davidson diagonalization with overlap
     ethr =  1.12E-06,  avg # of iterations =  2.0

     negative rho (up, down):  7.649E-03 0.000E+00

     total cpu time spent up to now is      545.0 secs

     total energy              =    -387.05819292 Ry
     Harris-Foulkes estimate   =    -387.05806750 Ry
     estimated scf accuracy    <       0.00035354 Ry

     iteration # 14     ecut=    65.00 Ry     beta=0.20
     Davidson diagonalization with overlap
     ethr =  6.80E-07,  avg # of iterations =  3.7

     negative rho (up, down):  7.466E-03 0.000E+00

     total cpu time spent up to now is      593.7 secs

     total energy              =    -387.05828417 Ry
     Harris-Foulkes estimate   =    -387.05831869 Ry
     estimated scf accuracy    <       0.00203498 Ry

     iteration # 15     ecut=    65.00 Ry     beta=0.20
     Davidson diagonalization with overlap
     ethr =  6.80E-07,  avg # of iterations =  2.0

     negative rho (up, down):  6.220E-03 0.000E+00

     total cpu time spent up to now is      629.9 secs

     total energy              =    -387.05797721 Ry
     Harris-Foulkes estimate   =    -387.05830267 Ry
     estimated scf accuracy    <       0.00191466 Ry

     iteration # 16     ecut=    65.00 Ry     beta=0.20
     Davidson diagonalization with overlap
     ethr =  6.80E-07,  avg # of iterations =  3.7

     negative rho (up, down):  4.099E-03 0.000E+00

     total cpu time spent up to now is      679.9 secs

     total energy              =    -387.05837423 Ry
     Harris-Foulkes estimate   =    -387.05824465 Ry
     estimated scf accuracy    <       0.00016910 Ry

     iteration # 17     ecut=    65.00 Ry     beta=0.20
     Davidson diagonalization with overlap
     ethr =  3.25E-07,  avg # of iterations =  4.0

     negative rho (up, down):  4.256E-03 0.000E+00

     total cpu time spent up to now is      735.1 secs

     total energy              =    -387.05844726 Ry
     Harris-Foulkes estimate   =    -387.05863063 Ry
     estimated scf accuracy    <       0.00119451 Ry

     iteration # 18     ecut=    65.00 Ry     beta=0.20
     Davidson diagonalization with overlap
     ethr =  3.25E-07,  avg # of iterations =  2.9

     negative rho (up, down):  4.046E-03 0.000E+00

     total cpu time spent up to now is      778.4 secs

     total energy              =    -387.05839799 Ry
     Harris-Foulkes estimate   =    -387.05848231 Ry
     estimated scf accuracy    <       0.00036042 Ry

     iteration # 19     ecut=    65.00 Ry     beta=0.20
     Davidson diagonalization with overlap
     ethr =  3.25E-07,  avg # of iterations =  3.2

     negative rho (up, down):  3.354E-03 0.000E+00

     total cpu time spent up to now is      824.1 secs

     total energy              =    -387.05851139 Ry
     Harris-Foulkes estimate   =    -387.05845316 Ry
     estimated scf accuracy    <       0.00000460 Ry

     iteration # 20     ecut=    65.00 Ry     beta=0.20
     Davidson diagonalization with overlap
     ethr =  8.84E-09,  avg # of iterations =  3.7

     negative rho (up, down):  2.954E-03 0.000E+00

     total cpu time spent up to now is      877.2 secs

     total energy              =    -387.05854467 Ry
     Harris-Foulkes estimate   =    -387.05851351 Ry
     estimated scf accuracy    <       0.00000311 Ry

     iteration # 21     ecut=    65.00 Ry     beta=0.20
     Davidson diagonalization with overlap
     ethr =  5.98E-09,  avg # of iterations =  3.1

     negative rho (up, down):  2.463E-03 0.000E+00

     total cpu time spent up to now is      922.8 secs

     total energy              =    -387.05858120 Ry
     Harris-Foulkes estimate   =    -387.05854560 Ry
     estimated scf accuracy    <       0.00000104 Ry

     iteration # 22     ecut=    65.00 Ry     beta=0.20
     Davidson diagonalization with overlap
     ethr =  2.00E-09,  avg # of iterations =  2.4

     negative rho (up, down):  1.959E-03 0.000E+00

     total cpu time spent up to now is      962.0 secs

     total energy              =    -387.05861255 Ry
     Harris-Foulkes estimate   =    -387.05858139 Ry
     estimated scf accuracy    <       0.00000108 Ry

     iteration # 23     ecut=    65.00 Ry     beta=0.20
     Davidson diagonalization with overlap
     ethr =  2.00E-09,  avg # of iterations =  2.4

     negative rho (up, down):  1.519E-03 0.000E+00

     total cpu time spent up to now is     1000.4 secs

     total energy              =    -387.05863604 Ry
     Harris-Foulkes estimate   =    -387.05861268 Ry
     estimated scf accuracy    <       0.00000036 Ry

     iteration # 24     ecut=    65.00 Ry     beta=0.20
     Davidson diagonalization with overlap
     ethr =  6.83E-10,  avg # of iterations =  2.3

     negative rho (up, down):  1.229E-03 0.000E+00

     total cpu time spent up to now is     1041.7 secs

     total energy              =    -387.05864943 Ry
     Harris-Foulkes estimate   =    -387.05863615 Ry
     estimated scf accuracy    <       0.00000065 Ry

     iteration # 25     ecut=    65.00 Ry     beta=0.20
     Davidson diagonalization with overlap
     ethr =  6.83E-10,  avg # of iterations =  2.1

     negative rho (up, down):  1.029E-03 0.000E+00

     total cpu time spent up to now is     1079.3 secs

     total energy              =    -387.05865744 Ry
     Harris-Foulkes estimate   =    -387.05864945 Ry
     estimated scf accuracy    <       0.00000081 Ry

     iteration # 26     ecut=    65.00 Ry     beta=0.20
     Davidson diagonalization with overlap
     ethr =  6.83E-10,  avg # of iterations =  1.3

     negative rho (up, down):  8.633E-04 0.000E+00

     total cpu time spent up to now is     1113.3 secs

     total energy              =    -387.05866315 Ry
     Harris-Foulkes estimate   =    -387.05865745 Ry
     estimated scf accuracy    <       0.00000089 Ry

     iteration # 27     ecut=    65.00 Ry     beta=0.20
     Davidson diagonalization with overlap
     ethr =  6.83E-10,  avg # of iterations =  1.3

     negative rho (up, down):  7.041E-04 0.000E+00

     total cpu time spent up to now is     1147.0 secs

     total energy              =    -387.05866789 Ry
     Harris-Foulkes estimate   =    -387.05866315 Ry
     estimated scf accuracy    <       0.00000093 Ry

     iteration # 28     ecut=    65.00 Ry     beta=0.20
     Davidson diagonalization with overlap
     ethr =  6.83E-10,  avg # of iterations =  2.0

     negative rho (up, down):  6.466E-04 0.000E+00

     total cpu time spent up to now is     1184.5 secs

     total energy              =    -387.05866938 Ry
     Harris-Foulkes estimate   =    -387.05866793 Ry
     estimated scf accuracy    <       0.00000086 Ry

     iteration # 29     ecut=    65.00 Ry     beta=0.20
     Davidson diagonalization with overlap
     ethr =  6.83E-10,  avg # of iterations =  2.6

     negative rho (up, down):  6.586E-04 0.000E+00

     total cpu time spent up to now is     1222.9 secs

     total energy              =    -387.05866910 Ry
     Harris-Foulkes estimate   =    -387.05866941 Ry
     estimated scf accuracy    <       0.00000065 Ry

     iteration # 30     ecut=    65.00 Ry     beta=0.20
     Davidson diagonalization with overlap
     ethr =  6.83E-10,  avg # of iterations =  2.0

     negative rho (up, down):  6.721E-04 0.000E+00

     total cpu time spent up to now is     1260.5 secs

     total energy              =    -387.05866894 Ry
     Harris-Foulkes estimate   =    -387.05866915 Ry
     estimated scf accuracy    <       0.00000039 Ry

     iteration # 31     ecut=    65.00 Ry     beta=0.20
     Davidson diagonalization with overlap
     ethr =  6.83E-10,  avg # of iterations =  2.0

     negative rho (up, down):  5.639E-04 0.000E+00

     total cpu time spent up to now is     1297.4 secs

     total energy              =    -387.05867145 Ry
     Harris-Foulkes estimate   =    -387.05866901 Ry
     estimated scf accuracy    <       0.00000025 Ry

     iteration # 32     ecut=    65.00 Ry     beta=0.20
     Davidson diagonalization with overlap
     ethr =  4.87E-10,  avg # of iterations =  1.2

     negative rho (up, down):  4.435E-04 0.000E+00

     total cpu time spent up to now is     1332.4 secs

     total energy              =    -387.05867370 Ry
     Harris-Foulkes estimate   =    -387.05867146 Ry
     estimated scf accuracy    <       0.00000028 Ry

     iteration # 33     ecut=    65.00 Ry     beta=0.20
     Davidson diagonalization with overlap
     ethr =  4.87E-10,  avg # of iterations =  2.6

     negative rho (up, down):  3.431E-04 0.000E+00

     total cpu time spent up to now is     1373.1 secs

     total energy              =    -387.05867516 Ry
     Harris-Foulkes estimate   =    -387.05867375 Ry
     estimated scf accuracy    <       0.00000060 Ry

     iteration # 34     ecut=    65.00 Ry     beta=0.20
     Davidson diagonalization with overlap
     ethr =  4.87E-10,  avg # of iterations =  2.0

     negative rho (up, down):  3.270E-04 0.000E+00

     total cpu time spent up to now is     1411.0 secs

     total energy              =    -387.05867535 Ry
     Harris-Foulkes estimate   =    -387.05867519 Ry
     estimated scf accuracy    <       0.00000078 Ry

     iteration # 35     ecut=    65.00 Ry     beta=0.20
     Davidson diagonalization with overlap
     ethr =  4.87E-10,  avg # of iterations =  2.0

     negative rho (up, down):  3.985E-04 0.000E+00

     total cpu time spent up to now is     1446.6 secs

     total energy              =    -387.05867414 Ry
     Harris-Foulkes estimate   =    -387.05867536 Ry
     estimated scf accuracy    <       0.00000069 Ry

     iteration # 36     ecut=    65.00 Ry     beta=0.20
     Davidson diagonalization with overlap
     ethr =  4.87E-10,  avg # of iterations =  2.8

     negative rho (up, down):  3.981E-04 0.000E+00

     total cpu time spent up to now is     1491.3 secs

     total energy              =    -387.05867425 Ry
     Harris-Foulkes estimate   =    -387.05867426 Ry
     estimated scf accuracy    <       0.00000029 Ry

     iteration # 37     ecut=    65.00 Ry     beta=0.20
     Davidson diagonalization with overlap
     ethr =  4.87E-10,  avg # of iterations =  2.0

     negative rho (up, down):  3.620E-04 0.000E+00

     total cpu time spent up to now is     1528.1 secs

     total energy              =    -387.05867477 Ry
     Harris-Foulkes estimate   =    -387.05867426 Ry
     estimated scf accuracy    <       0.00000021 Ry

     iteration # 38     ecut=    65.00 Ry     beta=0.20
     Davidson diagonalization with overlap
     ethr =  4.12E-10,  avg # of iterations =  1.0

     negative rho (up, down):  3.235E-04 0.000E+00

     total cpu time spent up to now is     1562.8 secs

     total energy              =    -387.05867526 Ry
     Harris-Foulkes estimate   =    -387.05867477 Ry
     estimated scf accuracy    <       0.00000021 Ry

     iteration # 39     ecut=    65.00 Ry     beta=0.20
     Davidson diagonalization with overlap
     ethr =  3.97E-10,  avg # of iterations =  2.5

     negative rho (up, down):  2.813E-04 0.000E+00

     total cpu time spent up to now is     1602.9 secs

     total energy              =    -387.05867570 Ry
     Harris-Foulkes estimate   =    -387.05867529 Ry
     estimated scf accuracy    <       0.00000029 Ry

     iteration # 40     ecut=    65.00 Ry     beta=0.20
     Davidson diagonalization with overlap
     ethr =  3.97E-10,  avg # of iterations =  2.0

     negative rho (up, down):  3.377E-04 0.000E+00

     total cpu time spent up to now is     1638.6 secs

     total energy              =    -387.05867516 Ry
     Harris-Foulkes estimate   =    -387.05867571 Ry
     estimated scf accuracy    <       0.00000029 Ry

     iteration # 41     ecut=    65.00 Ry     beta=0.20
     Davidson diagonalization with overlap
     ethr =  3.97E-10,  avg # of iterations =  2.0

     negative rho (up, down):  3.805E-04 0.000E+00

     total cpu time spent up to now is     1676.6 secs

     total energy              =    -387.05867485 Ry
     Harris-Foulkes estimate   =    -387.05867520 Ry
     estimated scf accuracy    <       0.00000019 Ry

     iteration # 42     ecut=    65.00 Ry     beta=0.20
     Davidson diagonalization with overlap
     ethr =  3.70E-10,  avg # of iterations =  3.0

     negative rho (up, down):  3.157E-04 0.000E+00

     total cpu time spent up to now is     1720.8 secs

     total energy              =    -387.05867554 Ry
     Harris-Foulkes estimate   =    -387.05867491 Ry
     estimated scf accuracy    <       0.00000044 Ry

     iteration # 43     ecut=    65.00 Ry     beta=0.20
     Davidson diagonalization with overlap
     ethr =  3.70E-10,  avg # of iterations =  2.0

     negative rho (up, down):  3.277E-04 0.000E+00

     total cpu time spent up to now is     1757.5 secs

     total energy              =    -387.05867533 Ry
     Harris-Foulkes estimate   =    -387.05867555 Ry
     estimated scf accuracy    <       0.00000027 Ry

     iteration # 44     ecut=    65.00 Ry     beta=0.20
     Davidson diagonalization with overlap
     ethr =  3.70E-10,  avg # of iterations =  3.1

     negative rho (up, down):  2.613E-04 0.000E+00

     total cpu time spent up to now is     1804.0 secs

     total energy              =    -387.05867591 Ry
     Harris-Foulkes estimate   =    -387.05867538 Ry
     estimated scf accuracy    <       0.00000004 Ry

     iteration # 45     ecut=    65.00 Ry     beta=0.20
     Davidson diagonalization with overlap
     ethr =  6.93E-11,  avg # of iterations =  3.0

     negative rho (up, down):  2.547E-04 0.000E+00

     total cpu time spent up to now is     1851.0 secs

     total energy              =    -387.05867592 Ry
     Harris-Foulkes estimate   =    -387.05867592 Ry
     estimated scf accuracy    <       0.00000003 Ry

     iteration # 46     ecut=    65.00 Ry     beta=0.20
     Davidson diagonalization with overlap
     ethr =  5.91E-11,  avg # of iterations =  2.0

     negative rho (up, down):  2.156E-04 0.000E+00

     total cpu time spent up to now is     1889.6 secs

     total energy              =    -387.05867616 Ry
     Harris-Foulkes estimate   =    -387.05867593 Ry
     estimated scf accuracy    <       0.00000001 Ry

     iteration # 47     ecut=    65.00 Ry     beta=0.20
     Davidson diagonalization with overlap
     ethr =  1.99E-11,  avg # of iterations =  3.0

     negative rho (up, down):  1.902E-04 0.000E+00

     total cpu time spent up to now is     1933.9 secs

     total energy              =    -387.05867629 Ry
     Harris-Foulkes estimate   =    -387.05867616 Ry
     estimated scf accuracy    <          8.8E-09 Ry

     iteration # 48     ecut=    65.00 Ry     beta=0.20
     Davidson diagonalization with overlap
     ethr =  1.69E-11,  avg # of iterations =  1.2

     negative rho (up, down):  1.876E-04 0.000E+00

     total cpu time spent up to now is     1969.6 secs

     total energy              =    -387.05867631 Ry
     Harris-Foulkes estimate   =    -387.05867629 Ry
     estimated scf accuracy    <          8.8E-09 Ry

     iteration # 49     ecut=    65.00 Ry     beta=0.20
     Davidson diagonalization with overlap
     ethr =  1.69E-11,  avg # of iterations =  2.6

     negative rho (up, down):  1.742E-04 0.000E+00

     total cpu time spent up to now is     2011.8 secs

     total energy              =    -387.05867637 Ry
     Harris-Foulkes estimate   =    -387.05867631 Ry
     estimated scf accuracy    <       0.00000001 Ry

     iteration # 50     ecut=    65.00 Ry     beta=0.20
     Davidson diagonalization with overlap
     ethr =  1.69E-11,  avg # of iterations =  2.0

     negative rho (up, down):  1.611E-04 0.000E+00

     total cpu time spent up to now is     2048.7 secs

     total energy              =    -387.05867642 Ry
     Harris-Foulkes estimate   =    -387.05867637 Ry
     estimated scf accuracy    <       0.00000001 Ry

     iteration # 51     ecut=    65.00 Ry     beta=0.20
     Davidson diagonalization with overlap
     ethr =  1.69E-11,  avg # of iterations =  1.5

     negative rho (up, down):  1.520E-04 0.000E+00

     total cpu time spent up to now is     2084.5 secs

     total energy              =    -387.05867645 Ry
     Harris-Foulkes estimate   =    -387.05867642 Ry
     estimated scf accuracy    <          7.6E-09 Ry

     iteration # 52     ecut=    65.00 Ry     beta=0.20
     Davidson diagonalization with overlap
     ethr =  1.45E-11,  avg # of iterations =  1.0

     negative rho (up, down):  1.455E-04 0.000E+00

     total cpu time spent up to now is     2119.9 secs

     total energy              =    -387.05867647 Ry
     Harris-Foulkes estimate   =    -387.05867645 Ry
     estimated scf accuracy    <          6.8E-09 Ry

     iteration # 53     ecut=    65.00 Ry     beta=0.20
     Davidson diagonalization with overlap
     ethr =  1.31E-11,  avg # of iterations =  2.6

     negative rho (up, down):  1.420E-04 0.000E+00

     total cpu time spent up to now is     2157.6 secs

     total energy              =    -387.05867648 Ry
     Harris-Foulkes estimate   =    -387.05867647 Ry
     estimated scf accuracy    <          4.7E-09 Ry

     iteration # 54     ecut=    65.00 Ry     beta=0.20
     Davidson diagonalization with overlap
     ethr =  9.02E-12,  avg # of iterations =  2.0

     negative rho (up, down):  1.385E-04 0.000E+00

     total cpu time spent up to now is     2194.4 secs

     total energy              =    -387.05867650 Ry
     Harris-Foulkes estimate   =    -387.05867648 Ry
     estimated scf accuracy    <          4.7E-09 Ry

     iteration # 55     ecut=    65.00 Ry     beta=0.20
     Davidson diagonalization with overlap
     ethr =  9.00E-12,  avg # of iterations =  2.7

     negative rho (up, down):  1.368E-04 0.000E+00

     total cpu time spent up to now is     2234.7 secs

     total energy              =    -387.05867650 Ry
     Harris-Foulkes estimate   =    -387.05867650 Ry
     estimated scf accuracy    <          7.4E-09 Ry

     iteration # 56     ecut=    65.00 Ry     beta=0.20
     Davidson diagonalization with overlap
     ethr =  9.00E-12,  avg # of iterations =  2.6

     negative rho (up, down):  1.354E-04 0.000E+00

     total cpu time spent up to now is     2275.2 secs

     total energy              =    -387.05867650 Ry
     Harris-Foulkes estimate   =    -387.05867650 Ry
     estimated scf accuracy    <          4.1E-09 Ry

     iteration # 57     ecut=    65.00 Ry     beta=0.20
     Davidson diagonalization with overlap
     ethr =  7.85E-12,  avg # of iterations =  1.8

     negative rho (up, down):  1.354E-04 0.000E+00

     total cpu time spent up to now is     2311.4 secs

     total energy              =    -387.05867650 Ry
     Harris-Foulkes estimate   =    -387.05867650 Ry
     estimated scf accuracy    <          4.3E-09 Ry

     iteration # 58     ecut=    65.00 Ry     beta=0.20
     Davidson diagonalization with overlap
     ethr =  7.85E-12,  avg # of iterations =  2.5

     negative rho (up, down):  1.364E-04 0.000E+00

     total cpu time spent up to now is     2349.2 secs

     total energy              =    -387.05867649 Ry
     Harris-Foulkes estimate   =    -387.05867650 Ry
     estimated scf accuracy    <          5.3E-09 Ry

     iteration # 59     ecut=    65.00 Ry     beta=0.20
     Davidson diagonalization with overlap
     ethr =  7.85E-12,  avg # of iterations =  3.2

     negative rho (up, down):  1.353E-04 0.000E+00

     total cpu time spent up to now is     2393.2 secs

     total energy              =    -387.05867650 Ry
     Harris-Foulkes estimate   =    -387.05867650 Ry
     estimated scf accuracy    <          4.4E-09 Ry

     iteration # 60     ecut=    65.00 Ry     beta=0.20
     Davidson diagonalization with overlap
     ethr =  7.85E-12,  avg # of iterations =  1.0

     negative rho (up, down):  1.345E-04 0.000E+00

     total cpu time spent up to now is     2427.0 secs

     total energy              =    -387.05867651 Ry
     Harris-Foulkes estimate   =    -387.05867650 Ry
     estimated scf accuracy    <          4.0E-09 Ry

     iteration # 61     ecut=    65.00 Ry     beta=0.20
     Davidson diagonalization with overlap
     ethr =  7.78E-12,  avg # of iterations =  1.0

     negative rho (up, down):  1.337E-04 0.000E+00

     total cpu time spent up to now is     2460.9 secs

     total energy              =    -387.05867651 Ry
     Harris-Foulkes estimate   =    -387.05867651 Ry
     estimated scf accuracy    <          4.3E-09 Ry

     iteration # 62     ecut=    65.00 Ry     beta=0.20
     Davidson diagonalization with overlap
     ethr =  7.78E-12,  avg # of iterations =  2.5

     negative rho (up, down):  1.337E-04 0.000E+00

     total cpu time spent up to now is     2497.2 secs

     total energy              =    -387.05867651 Ry
     Harris-Foulkes estimate   =    -387.05867651 Ry
     estimated scf accuracy    <          2.7E-09 Ry

     iteration # 63     ecut=    65.00 Ry     beta=0.20
     Davidson diagonalization with overlap
     ethr =  5.28E-12,  avg # of iterations =  2.0

     negative rho (up, down):  1.336E-04 0.000E+00

     total cpu time spent up to now is     2532.2 secs

     total energy              =    -387.05867651 Ry
     Harris-Foulkes estimate   =    -387.05867651 Ry
     estimated scf accuracy    <          2.6E-09 Ry

     iteration # 64     ecut=    65.00 Ry     beta=0.20
     Davidson diagonalization with overlap
     ethr =  4.95E-12,  avg # of iterations =  2.9

     negative rho (up, down):  1.337E-04 0.000E+00

     total cpu time spent up to now is     2572.2 secs

     total energy              =    -387.05867651 Ry
     Harris-Foulkes estimate   =    -387.05867651 Ry
     estimated scf accuracy    <          4.0E-09 Ry

     iteration # 65     ecut=    65.00 Ry     beta=0.20
     Davidson diagonalization with overlap
     ethr =  4.95E-12,  avg # of iterations =  2.4

     negative rho (up, down):  1.352E-04 0.000E+00

     total cpu time spent up to now is     2608.4 secs

     total energy              =    -387.05867650 Ry
     Harris-Foulkes estimate   =    -387.05867651 Ry
     estimated scf accuracy    <          6.2E-09 Ry

     iteration # 66     ecut=    65.00 Ry     beta=0.20
     Davidson diagonalization with overlap
     ethr =  4.95E-12,  avg # of iterations =  3.5

     negative rho (up, down):  1.345E-04 0.000E+00

     total cpu time spent up to now is     2654.5 secs

     total energy              =    -387.05867650 Ry
     Harris-Foulkes estimate   =    -387.05867650 Ry
     estimated scf accuracy    <          2.2E-09 Ry

     iteration # 67     ecut=    65.00 Ry     beta=0.20
     Davidson diagonalization with overlap
     ethr =  4.23E-12,  avg # of iterations =  3.0

     negative rho (up, down):  1.346E-04 0.000E+00

     total cpu time spent up to now is     2697.1 secs

     total energy              =    -387.05867651 Ry
     Harris-Foulkes estimate   =    -387.05867651 Ry
     estimated scf accuracy    <          1.1E-09 Ry

     iteration # 68     ecut=    65.00 Ry     beta=0.20
     Davidson diagonalization with overlap
     ethr =  2.19E-12,  avg # of iterations =  4.1

     negative rho (up, down):  1.339E-04 0.000E+00

     total cpu time spent up to now is     2748.1 secs

     total energy              =    -387.05867651 Ry
     Harris-Foulkes estimate   =    -387.05867651 Ry
     estimated scf accuracy    <          3.6E-09 Ry

     iteration # 69     ecut=    65.00 Ry     beta=0.20
     Davidson diagonalization with overlap
     ethr =  2.19E-12,  avg # of iterations =  2.5

     negative rho (up, down):  1.333E-04 0.000E+00

     total cpu time spent up to now is     2785.5 secs

     total energy              =    -387.05867651 Ry
     Harris-Foulkes estimate   =    -387.05867651 Ry
     estimated scf accuracy    <          1.7E-09 Ry

     iteration # 70     ecut=    65.00 Ry     beta=0.20
     Davidson diagonalization with overlap
     ethr =  2.19E-12,  avg # of iterations =  2.5

     negative rho (up, down):  1.329E-04 0.000E+00

     total cpu time spent up to now is     2821.8 secs

     total energy              =    -387.05867651 Ry
     Harris-Foulkes estimate   =    -387.05867651 Ry
     estimated scf accuracy    <          1.1E-09 Ry

     iteration # 71     ecut=    65.00 Ry     beta=0.20
     Davidson diagonalization with overlap
     ethr =  2.06E-12,  avg # of iterations =  1.6

     negative rho (up, down):  1.328E-04 0.000E+00

     total cpu time spent up to now is     2855.9 secs

     total energy              =    -387.05867651 Ry
     Harris-Foulkes estimate   =    -387.05867651 Ry
     estimated scf accuracy    <          7.1E-10 Ry

     iteration # 72     ecut=    65.00 Ry     beta=0.20
     Davidson diagonalization with overlap
     ethr =  1.37E-12,  avg # of iterations =  2.8

     negative rho (up, down):  1.326E-04 0.000E+00

     total cpu time spent up to now is     2895.4 secs

     total energy              =    -387.05867651 Ry
     Harris-Foulkes estimate   =    -387.05867651 Ry
     estimated scf accuracy    <          4.3E-10 Ry

     iteration # 73     ecut=    65.00 Ry     beta=0.20
     Davidson diagonalization with overlap
     ethr =  8.30E-13,  avg # of iterations =  3.1

     negative rho (up, down):  1.326E-04 0.000E+00

     total cpu time spent up to now is     2933.1 secs

     total energy              =    -387.05867651 Ry
     Harris-Foulkes estimate   =    -387.05867651 Ry
     estimated scf accuracy    <          4.8E-10 Ry

     iteration # 74     ecut=    65.00 Ry     beta=0.20
     Davidson diagonalization with overlap
     ethr =  8.30E-13,  avg # of iterations =  2.3

     negative rho (up, down):  1.325E-04 0.000E+00

     total cpu time spent up to now is     2970.8 secs

     total energy              =    -387.05867651 Ry
     Harris-Foulkes estimate   =    -387.05867651 Ry
     estimated scf accuracy    <          3.7E-10 Ry

     iteration # 75     ecut=    65.00 Ry     beta=0.20
     Davidson diagonalization with overlap
     ethr =  7.15E-13,  avg # of iterations =  2.7

     negative rho (up, down):  1.324E-04 0.000E+00

     total cpu time spent up to now is     3008.0 secs

     total energy              =    -387.05867651 Ry
     Harris-Foulkes estimate   =    -387.05867651 Ry
     estimated scf accuracy    <          4.9E-10 Ry

     iteration # 76     ecut=    65.00 Ry     beta=0.20
     Davidson diagonalization with overlap
     ethr =  7.15E-13,  avg # of iterations =  1.2

     negative rho (up, down):  1.323E-04 0.000E+00

     total cpu time spent up to now is     3041.9 secs

     total energy              =    -387.05867651 Ry
     Harris-Foulkes estimate   =    -387.05867651 Ry
     estimated scf accuracy    <          6.5E-10 Ry

     iteration # 77     ecut=    65.00 Ry     beta=0.20
     Davidson diagonalization with overlap
     ethr =  7.15E-13,  avg # of iterations =  2.0

     negative rho (up, down):  1.323E-04 0.000E+00

     total cpu time spent up to now is     3077.2 secs

     total energy              =    -387.05867651 Ry
     Harris-Foulkes estimate   =    -387.05867651 Ry
     estimated scf accuracy    <          6.5E-10 Ry

     iteration # 78     ecut=    65.00 Ry     beta=0.20
     Davidson diagonalization with overlap
     ethr =  7.15E-13,  avg # of iterations =  1.7

     negative rho (up, down):  1.322E-04 0.000E+00

     total cpu time spent up to now is     3111.3 secs

     total energy              =    -387.05867651 Ry
     Harris-Foulkes estimate   =    -387.05867651 Ry
     estimated scf accuracy    <          8.3E-10 Ry

     iteration # 79     ecut=    65.00 Ry     beta=0.20
     Davidson diagonalization with overlap
     ethr =  7.15E-13,  avg # of iterations =  1.0

     negative rho (up, down):  1.322E-04 0.000E+00

     total cpu time spent up to now is     3145.8 secs

     total energy              =    -387.05867651 Ry
     Harris-Foulkes estimate   =    -387.05867651 Ry
     estimated scf accuracy    <          8.2E-10 Ry

     iteration # 80     ecut=    65.00 Ry     beta=0.20
     Davidson diagonalization with overlap
     ethr =  7.15E-13,  avg # of iterations =  2.0

     negative rho (up, down):  1.322E-04 0.000E+00

     total cpu time spent up to now is     3181.2 secs

     total energy              =    -387.05867651 Ry
     Harris-Foulkes estimate   =    -387.05867651 Ry
     estimated scf accuracy    <          6.6E-10 Ry

     iteration # 81     ecut=    65.00 Ry     beta=0.20
     Davidson diagonalization with overlap
     ethr =  7.15E-13,  avg # of iterations =  1.0

     negative rho (up, down):  1.322E-04 0.000E+00

     total cpu time spent up to now is     3215.3 secs

     total energy              =    -387.05867651 Ry
     Harris-Foulkes estimate   =    -387.05867651 Ry
     estimated scf accuracy    <          7.5E-10 Ry

     iteration # 82     ecut=    65.00 Ry     beta=0.20
     Davidson diagonalization with overlap
     ethr =  7.15E-13,  avg # of iterations =  2.0

     negative rho (up, down):  1.321E-04 0.000E+00

     total cpu time spent up to now is     3250.6 secs

     total energy              =    -387.05867651 Ry
     Harris-Foulkes estimate   =    -387.05867651 Ry
     estimated scf accuracy    <          6.8E-10 Ry

     iteration # 83     ecut=    65.00 Ry     beta=0.20
     Davidson diagonalization with overlap
     ethr =  7.15E-13,  avg # of iterations =  1.6

     negative rho (up, down):  1.321E-04 0.000E+00

     total cpu time spent up to now is     3285.6 secs

     total energy              =    -387.05867651 Ry
     Harris-Foulkes estimate   =    -387.05867651 Ry
     estimated scf accuracy    <          4.3E-10 Ry

     iteration # 84     ecut=    65.00 Ry     beta=0.20
     Davidson diagonalization with overlap
     ethr =  7.15E-13,  avg # of iterations =  1.0

     negative rho (up, down):  1.322E-04 0.000E+00

     total cpu time spent up to now is     3319.4 secs

     total energy              =    -387.05867651 Ry
     Harris-Foulkes estimate   =    -387.05867651 Ry
     estimated scf accuracy    <          4.3E-10 Ry

     iteration # 85     ecut=    65.00 Ry     beta=0.20
     Davidson diagonalization with overlap
     ethr =  7.15E-13,  avg # of iterations =  2.0

     negative rho (up, down):  1.322E-04 0.000E+00

     total cpu time spent up to now is     3355.3 secs

     total energy              =    -387.05867651 Ry
     Harris-Foulkes estimate   =    -387.05867651 Ry
     estimated scf accuracy    <          4.0E-10 Ry

     iteration # 86     ecut=    65.00 Ry     beta=0.20
     Davidson diagonalization with overlap
     ethr =  7.15E-13,  avg # of iterations =  1.0

     negative rho (up, down):  1.322E-04 0.000E+00

     total cpu time spent up to now is     3389.1 secs

     total energy              =    -387.05867651 Ry
     Harris-Foulkes estimate   =    -387.05867651 Ry
     estimated scf accuracy    <          3.8E-10 Ry

     iteration # 87     ecut=    65.00 Ry     beta=0.20
     Davidson diagonalization with overlap
     ethr =  7.15E-13,  avg # of iterations =  1.0

     negative rho (up, down):  1.321E-04 0.000E+00

     total cpu time spent up to now is     3422.8 secs

     total energy              =    -387.05867651 Ry
     Harris-Foulkes estimate   =    -387.05867651 Ry
     estimated scf accuracy    <          3.8E-10 Ry

     iteration # 88     ecut=    65.00 Ry     beta=0.20
     Davidson diagonalization with overlap
     ethr =  7.15E-13,  avg # of iterations =  1.0

     negative rho (up, down):  1.322E-04 0.000E+00

     total cpu time spent up to now is     3456.5 secs

     total energy              =    -387.05867651 Ry
     Harris-Foulkes estimate   =    -387.05867651 Ry
     estimated scf accuracy    <          4.0E-10 Ry

     iteration # 89     ecut=    65.00 Ry     beta=0.20
     Davidson diagonalization with overlap
     ethr =  7.15E-13,  avg # of iterations =  2.0

     negative rho (up, down):  1.323E-04 0.000E+00

     total cpu time spent up to now is     3492.3 secs

     total energy              =    -387.05867651 Ry
     Harris-Foulkes estimate   =    -387.05867651 Ry
     estimated scf accuracy    <          3.2E-10 Ry

     iteration # 90     ecut=    65.00 Ry     beta=0.20
     Davidson diagonalization with overlap
     ethr =  6.24E-13,  avg # of iterations =  2.0

     negative rho (up, down):  1.322E-04 0.000E+00

     total cpu time spent up to now is     3527.6 secs

     total energy              =    -387.05867651 Ry
     Harris-Foulkes estimate   =    -387.05867651 Ry
     estimated scf accuracy    <          3.0E-10 Ry

     iteration # 91     ecut=    65.00 Ry     beta=0.20
     Davidson diagonalization with overlap
     ethr =  5.72E-13,  avg # of iterations =  2.9

     negative rho (up, down):  1.322E-04 0.000E+00

     total cpu time spent up to now is     3566.0 secs

     total energy              =    -387.05867651 Ry
     Harris-Foulkes estimate   =    -387.05867651 Ry
     estimated scf accuracy    <          2.1E-10 Ry

     iteration # 92     ecut=    65.00 Ry     beta=0.20
     Davidson diagonalization with overlap
     ethr =  4.04E-13,  avg # of iterations =  2.0

     negative rho (up, down):  1.321E-04 0.000E+00

     total cpu time spent up to now is     3601.3 secs

     total energy              =    -387.05867651 Ry
     Harris-Foulkes estimate   =    -387.05867651 Ry
     estimated scf accuracy    <          2.0E-10 Ry

     iteration # 93     ecut=    65.00 Ry     beta=0.20
     Davidson diagonalization with overlap
     ethr =  3.85E-13,  avg # of iterations =  2.0

     negative rho (up, down):  1.321E-04 0.000E+00

     total cpu time spent up to now is     3636.5 secs

     total energy              =    -387.05867651 Ry
     Harris-Foulkes estimate   =    -387.05867651 Ry
     estimated scf accuracy    <          2.1E-10 Ry

     iteration # 94     ecut=    65.00 Ry     beta=0.20
     Davidson diagonalization with overlap
     ethr =  3.85E-13,  avg # of iterations =  2.0

     negative rho (up, down):  1.322E-04 0.000E+00

     total cpu time spent up to now is     3672.8 secs

     total energy              =    -387.05867651 Ry
     Harris-Foulkes estimate   =    -387.05867651 Ry
     estimated scf accuracy    <          1.9E-10 Ry

     iteration # 95     ecut=    65.00 Ry     beta=0.20
     Davidson diagonalization with overlap
     ethr =  3.72E-13,  avg # of iterations =  2.0

     negative rho (up, down):  1.322E-04 0.000E+00

     total cpu time spent up to now is     3710.4 secs

     total energy              =    -387.05867651 Ry
     Harris-Foulkes estimate   =    -387.05867651 Ry
     estimated scf accuracy    <          1.6E-10 Ry

     iteration # 96     ecut=    65.00 Ry     beta=0.20
     Davidson diagonalization with overlap
     ethr =  3.07E-13,  avg # of iterations =  2.0

     negative rho (up, down):  1.321E-04 0.000E+00

     total cpu time spent up to now is     3745.6 secs

     total energy              =    -387.05867651 Ry
     Harris-Foulkes estimate   =    -387.05867651 Ry
     estimated scf accuracy    <          1.6E-10 Ry

     iteration # 97     ecut=    65.00 Ry     beta=0.20
     Davidson diagonalization with overlap
     ethr =  3.07E-13,  avg # of iterations =  1.0

     negative rho (up, down):  1.321E-04 0.000E+00

     total cpu time spent up to now is     3779.7 secs

     total energy              =    -387.05867651 Ry
     Harris-Foulkes estimate   =    -387.05867651 Ry
     estimated scf accuracy    <          1.6E-10 Ry

     iteration # 98     ecut=    65.00 Ry     beta=0.20
     Davidson diagonalization with overlap
     ethr =  3.07E-13,  avg # of iterations =  1.0

     negative rho (up, down):  1.321E-04 0.000E+00

     total cpu time spent up to now is     3814.0 secs

     total energy              =    -387.05867651 Ry
     Harris-Foulkes estimate   =    -387.05867651 Ry
     estimated scf accuracy    <          1.7E-10 Ry

     iteration # 99     ecut=    65.00 Ry     beta=0.20
     Davidson diagonalization with overlap
     ethr =  3.07E-13,  avg # of iterations =  2.0

     negative rho (up, down):  1.321E-04 0.000E+00

     total cpu time spent up to now is     3848.5 secs

     total energy              =    -387.05867651 Ry
     Harris-Foulkes estimate   =    -387.05867651 Ry
     estimated scf accuracy    <          1.6E-10 Ry

     iteration #100     ecut=    65.00 Ry     beta=0.20
     Davidson diagonalization with overlap
     ethr =  3.07E-13,  avg # of iterations =  1.2

     negative rho (up, down):  1.321E-04 0.000E+00

     total cpu time spent up to now is     3882.5 secs

     total energy              =    -387.05867651 Ry
     Harris-Foulkes estimate   =    -387.05867651 Ry
     estimated scf accuracy    <          1.5E-10 Ry

     iteration #101     ecut=    65.00 Ry     beta=0.20
     Davidson diagonalization with overlap
     ethr =  2.92E-13,  avg # of iterations =  1.0

     negative rho (up, down):  1.322E-04 0.000E+00

     total cpu time spent up to now is     3916.5 secs

     total energy              =    -387.05867651 Ry
     Harris-Foulkes estimate   =    -387.05867651 Ry
     estimated scf accuracy    <          1.3E-10 Ry

     iteration #102     ecut=    65.00 Ry     beta=0.20
     Davidson diagonalization with overlap
     ethr =  2.48E-13,  avg # of iterations =  2.0

     negative rho (up, down):  1.320E-04 0.000E+00

     total cpu time spent up to now is     3953.1 secs

     End of self-consistent calculation

          k = 0.0000 0.0000 0.0000 ( 17523 PWs)   bands (ev):

   -60.7177 -60.7177 -60.7110 -60.7110 -36.4849 -36.4849 -36.4782 -36.4782
   -34.0579 -34.0579 -34.0512 -34.0512 -33.8748 -33.8748 -33.8681 -33.8681
   -14.2514 -14.2514 -14.2274 -14.2274 -12.8867 -12.8867 -12.8443 -12.8443
    -5.8814  -5.8814  -5.7290  -5.7290  -2.7055  -2.7055  -2.6988  -2.6988
    -2.6393  -2.6393  -2.6324  -2.6324  -2.0881  -2.0881  -1.6240  -1.6240
    -1.5533  -1.5533  -1.5460  -1.5460  -1.4678  -1.4678  -1.4609  -1.4609
    -0.1927  -0.1927   0.1229   0.1229

     occupation numbers 
     1.0000   1.0000   1.0000   1.0000   1.0000   1.0000   1.0000   1.0000
     1.0000   1.0000   1.0000   1.0000   1.0000   1.0000   1.0000   1.0000
     1.0000   1.0000   1.0000   1.0000   1.0000   1.0000   1.0000   1.0000
     1.0000   1.0000   1.0000   1.0000   1.0000   1.0000   1.0000   1.0000
     1.0000   1.0000   1.0000   1.0000   1.0000   1.0000   1.0000   1.0000
     1.0000   1.0000   1.0000   1.0000   1.0000   1.0000   1.0000   1.0000
     1.0000   1.0000   1.0000   1.0000

          k = 0.0000 0.0962 0.0000 ( 17475 PWs)   bands (ev):

   -60.7147 -60.7147 -60.7080 -60.7080 -36.4925 -36.4925 -36.4858 -36.4858
   -34.0614 -34.0614 -34.0547 -34.0547 -33.8940 -33.8940 -33.8874 -33.8874
   -14.1423 -14.1423 -14.1184 -14.1184 -12.8419 -12.8419 -12.8009 -12.8009
    -5.7590  -5.7590  -5.6072  -5.6072  -2.9130  -2.9127  -2.9062  -2.9060
    -2.5602  -2.5599  -2.5511  -2.5508  -2.4706  -2.4706  -2.2312  -2.2312
    -1.6830  -1.6829  -1.6761  -1.6761  -1.2728  -1.2728  -1.0749  -1.0749
    -0.2199  -0.2198   0.0485   0.0486

     occupation numbers 
     1.0000   1.0000   1.0000   1.0000   1.0000   1.0000   1.0000   1.0000
     1.0000   1.0000   1.0000   1.0000   1.0000   1.0000   1.0000   1.0000
     1.0000   1.0000   1.0000   1.0000   1.0000   1.0000   1.0000   1.0000
     1.0000   1.0000   1.0000   1.0000   1.0000   1.0000   1.0000   1.0000
     1.0000   1.0000   1.0000   1.0000   1.0000   1.0000   1.0000   1.0000
     1.0000   1.0000   1.0000   1.0000   1.0000   1.0000   1.0000   1.0000
     1.0000   1.0000   1.0000   1.0000

          k = 0.0000 0.1925 0.0000 ( 17473 PWs)   bands (ev):

   -60.7065 -60.7065 -60.6998 -60.6998 -36.5140 -36.5140 -36.5073 -36.5073
   -34.0749 -34.0749 -34.0682 -34.0682 -33.9411 -33.9411 -33.9345 -33.9345
   -13.8318 -13.8318 -13.8084 -13.8084 -12.7145 -12.7145 -12.6775 -12.6775
    -5.4504  -5.4504  -5.3052  -5.3052  -3.4518  -3.4510  -3.4438  -3.4431
    -3.0966  -3.0965  -2.9404  -2.9402  -2.2408  -2.2408  -2.2338  -2.2337
    -2.0831  -2.0830  -2.0756  -2.0755  -1.2010  -1.2010  -0.9829  -0.9829
    -0.3982  -0.3979  -0.2535  -0.2531

     occupation numbers 
     1.0000   1.0000   1.0000   1.0000   1.0000   1.0000   1.0000   1.0000
     1.0000   1.0000   1.0000   1.0000   1.0000   1.0000   1.0000   1.0000
     1.0000   1.0000   1.0000   1.0000   1.0000   1.0000   1.0000   1.0000
     1.0000   1.0000   1.0000   1.0000   1.0000   1.0000   1.0000   1.0000
     1.0000   1.0000   1.0000   1.0000   1.0000   1.0000   1.0000   1.0000
     1.0000   1.0000   1.0000   1.0000   1.0000   1.0000   1.0000   1.0000
     1.0000   1.0000   1.0000   1.0000

          k = 0.0000 0.2887 0.0000 ( 17475 PWs)   bands (ev):

   -60.6954 -60.6954 -60.6887 -60.6887 -36.5449 -36.5449 -36.5382 -36.5382
   -34.1093 -34.1093 -34.1026 -34.1026 -33.9863 -33.9863 -33.9796 -33.9796
   -13.3709 -13.3708 -13.3490 -13.3490 -12.5268 -12.5268 -12.4960 -12.4960
    -5.2182  -5.2182  -5.1133  -5.1132  -3.9177  -3.9148  -3.8837  -3.8797
    -3.7389  -3.7371  -3.6447  -3.6440  -2.5371  -2.5371  -2.5292  -2.5291
    -1.7949  -1.7949  -1.7865  -1.7864  -1.4402  -1.4401  -1.2583  -1.2581
    -0.8028  -0.8022  -0.7521  -0.7512

     occupation numbers 
     1.0000   1.0000   1.0000   1.0000   1.0000   1.0000   1.0000   1.0000
     1.0000   1.0000   1.0000   1.0000   1.0000   1.0000   1.0000   1.0000
     1.0000   1.0000   1.0000   1.0000   1.0000   1.0000   1.0000   1.0000
     1.0000   1.0000   1.0000   1.0000   1.0000   1.0000   1.0000   1.0000
     1.0000   1.0000   1.0000   1.0000   1.0000   1.0000   1.0000   1.0000
     1.0000   1.0000   1.0000   1.0000   1.0000   1.0000   1.0000   1.0000
     1.0000   1.0000   1.0000   1.0000

          k = 0.0000 0.3849 0.0000 ( 17431 PWs)   bands (ev):

   -60.6841 -60.6841 -60.6775 -60.6775 -36.5774 -36.5774 -36.5707 -36.5707
   -34.1634 -34.1634 -34.1567 -34.1567 -34.0080 -34.0080 -34.0013 -34.0013
   -12.8505 -12.8505 -12.8318 -12.8318 -12.3194 -12.3194 -12.2964 -12.2963
    -5.4401  -5.4401  -5.3961  -5.3961  -4.3589  -4.3578  -4.3027  -4.3008
    -4.0130  -4.0095  -3.9533  -3.9506  -2.9150  -2.9150  -2.9068  -2.9067
    -1.7431  -1.7427  -1.6022  -1.6021  -1.3483  -1.3470  -1.3365  -1.3352
    -1.0552  -1.0548  -1.0139  -1.0133

     occupation numbers 
     1.0000   1.0000   1.0000   1.0000   1.0000   1.0000   1.0000   1.0000
     1.0000   1.0000   1.0000   1.0000   1.0000   1.0000   1.0000   1.0000
     1.0000   1.0000   1.0000   1.0000   1.0000   1.0000   1.0000   1.0000
     1.0000   1.0000   1.0000   1.0000   1.0000   1.0000   1.0000   1.0000
     1.0000   1.0000   1.0000   1.0000   1.0000   1.0000   1.0000   1.0000
     1.0000   1.0000   1.0000   1.0000   1.0000   1.0000   1.0000   1.0000
     1.0000   1.0000   1.0000   1.0000

          k = 0.0000 0.4811 0.0000 ( 17384 PWs)   bands (ev):

   -60.6759 -60.6759 -60.6692 -60.6692 -36.6023 -36.6023 -36.5956 -36.5956
   -34.2094 -34.2094 -34.2027 -34.2027 -34.0153 -34.0153 -34.0086 -34.0086
   -12.4131 -12.4131 -12.3993 -12.3993 -12.1514 -12.1513 -12.1362 -12.1361
    -5.8130  -5.8130  -5.7917  -5.7916  -4.8028  -4.8018  -4.7698  -4.7686
    -4.1311  -4.1298  -4.0828  -4.0818  -3.1598  -3.1598  -3.1514  -3.1514
    -1.9230  -1.9227  -1.8152  -1.8150  -1.0491  -1.0477  -1.0367  -1.0354
    -0.8679  -0.8679  -0.8204  -0.8203

     occupation numbers 
     1.0000   1.0000   1.0000   1.0000   1.0000   1.0000   1.0000   1.0000
     1.0000   1.0000   1.0000   1.0000   1.0000   1.0000   1.0000   1.0000
     1.0000   1.0000   1.0000   1.0000   1.0000   1.0000   1.0000   1.0000
     1.0000   1.0000   1.0000   1.0000   1.0000   1.0000   1.0000   1.0000
     1.0000   1.0000   1.0000   1.0000   1.0000   1.0000   1.0000   1.0000
     1.0000   1.0000   1.0000   1.0000   1.0000   1.0000   1.0000   1.0000
     1.0000   1.0000   1.0000   1.0000

          k = 0.0000-0.5774 0.0000 ( 17382 PWs)   bands (ev):

   -60.6729 -60.6729 -60.6662 -60.6662 -36.6116 -36.6116 -36.6049 -36.6049
   -34.2268 -34.2268 -34.2201 -34.2201 -34.0169 -34.0169 -34.0102 -34.0102
   -12.2356 -12.2356 -12.2252 -12.2252 -12.0855 -12.0855 -12.0744 -12.0744
    -5.9760  -5.9760  -5.9600  -5.9600  -4.9676  -4.9676  -4.9427  -4.9427
    -4.2177  -4.2177  -4.1742  -4.1742  -3.2441  -3.2441  -3.2356  -3.2356
    -1.9780  -1.9780  -1.8865  -1.8865  -0.9425  -0.9425  -0.9275  -0.9275
    -0.6888  -0.6888  -0.6519  -0.6519

     occupation numbers 
     1.0000   1.0000   1.0000   1.0000   1.0000   1.0000   1.0000   1.0000
     1.0000   1.0000   1.0000   1.0000   1.0000   1.0000   1.0000   1.0000
     1.0000   1.0000   1.0000   1.0000   1.0000   1.0000   1.0000   1.0000
     1.0000   1.0000   1.0000   1.0000   1.0000   1.0000   1.0000   1.0000
     1.0000   1.0000   1.0000   1.0000   1.0000   1.0000   1.0000   1.0000
     1.0000   1.0000   1.0000   1.0000   1.0000   1.0000   1.0000   1.0000
     1.0000   1.0000   1.0000   1.0000

          k = 0.0833 0.1443 0.0000 ( 17483 PWs)   bands (ev):

   -60.7091 -60.7091 -60.7024 -60.7024 -36.5078 -36.5064 -36.5011 -36.4997
   -34.0701 -34.0690 -34.0633 -34.0623 -33.9290 -33.9260 -33.9224 -33.9194
   -13.9335 -13.9313 -13.9099 -13.9077 -12.7558 -12.7556 -12.7174 -12.7172
    -5.5412  -5.5382  -5.3926  -5.3895  -3.2984  -3.2917  -3.2863  -3.2796
    -2.8897  -2.8894  -2.7035  -2.7021  -2.3616  -2.3548  -2.3351  -2.3280
    -2.0846  -2.0786  -2.0764  -2.0714  -1.0986  -1.0722  -0.8874  -0.8640
    -0.3230  -0.3192  -0.1427  -0.1371

     occupation numbers 
     1.0000   1.0000   1.0000   1.0000   1.0000   1.0000   1.0000   1.0000
     1.0000   1.0000   1.0000   1.0000   1.0000   1.0000   1.0000   1.0000
     1.0000   1.0000   1.0000   1.0000   1.0000   1.0000   1.0000   1.0000
     1.0000   1.0000   1.0000   1.0000   1.0000   1.0000   1.0000   1.0000
     1.0000   1.0000   1.0000   1.0000   1.0000   1.0000   1.0000   1.0000
     1.0000   1.0000   1.0000   1.0000   1.0000   1.0000   1.0000   1.0000
     1.0000   1.0000   1.0000   1.0000

          k = 0.0833 0.2406 0.0000 ( 17472 PWs)   bands (ev):

   -60.6995 -60.6995 -60.6928 -60.6928 -36.5351 -36.5314 -36.5284 -36.5247
   -34.0923 -34.0911 -34.0856 -34.0844 -33.9788 -33.9721 -33.9721 -33.9654
   -13.5489 -13.5423 -13.5264 -13.5197 -12.5972 -12.5967 -12.5640 -12.5634
    -5.2442  -5.2335  -5.1155  -5.1044  -3.7764  -3.7723  -3.7597  -3.7561
    -3.4184  -3.4099  -3.2986  -3.2870  -2.6616  -2.6591  -2.6447  -2.6369
    -2.0399  -2.0323  -1.9984  -1.9911  -1.1102  -1.0801  -0.9387  -0.9113
    -0.6333  -0.6103  -0.5648  -0.5386

     occupation numbers 
     1.0000   1.0000   1.0000   1.0000   1.0000   1.0000   1.0000   1.0000
     1.0000   1.0000   1.0000   1.0000   1.0000   1.0000   1.0000   1.0000
     1.0000   1.0000   1.0000   1.0000   1.0000   1.0000   1.0000   1.0000
     1.0000   1.0000   1.0000   1.0000   1.0000   1.0000   1.0000   1.0000
     1.0000   1.0000   1.0000   1.0000   1.0000   1.0000   1.0000   1.0000
     1.0000   1.0000   1.0000   1.0000   1.0000   1.0000   1.0000   1.0000
     1.0000   1.0000   1.0000   1.0000

          k = 0.0833 0.3368 0.0000 ( 17423 PWs)   bands (ev):

   -60.6883 -60.6883 -60.6816 -60.6816 -36.5682 -36.5616 -36.5615 -36.5549
   -34.1378 -34.1346 -34.1312 -34.1279 -34.0117 -34.0055 -34.0050 -33.9988
   -13.0574 -13.0448 -13.0373 -13.0244 -12.3965 -12.3954 -12.3702 -12.3691
    -5.2465  -5.2318  -5.1793  -5.1653  -4.0742  -4.0661  -4.0137  -4.0037
    -3.9512  -3.9420  -3.8947  -3.8890  -3.0536  -3.0452  -3.0158  -3.0047
    -1.8084  -1.8000  -1.7385  -1.7307  -1.3877  -1.3623  -1.2638  -1.2421
    -0.9359  -0.9151  -0.8697  -0.8473

     occupation numbers 
     1.0000   1.0000   1.0000   1.0000   1.0000   1.0000   1.0000   1.0000
     1.0000   1.0000   1.0000   1.0000   1.0000   1.0000   1.0000   1.0000
     1.0000   1.0000   1.0000   1.0000   1.0000   1.0000   1.0000   1.0000
     1.0000   1.0000   1.0000   1.0000   1.0000   1.0000   1.0000   1.0000
     1.0000   1.0000   1.0000   1.0000   1.0000   1.0000   1.0000   1.0000
     1.0000   1.0000   1.0000   1.0000   1.0000   1.0000   1.0000   1.0000
     1.0000   1.0000   1.0000   1.0000

          k = 0.0833 0.4330 0.0000 ( 17369 PWs)   bands (ev):

   -60.6785 -60.6785 -60.6718 -60.6718 -36.5981 -36.5914 -36.5890 -36.5823
   -34.1917 -34.1850 -34.1825 -34.1759 -34.0242 -34.0204 -34.0175 -34.0137
   -12.5729 -12.5569 -12.5531 -12.5370 -12.2029 -12.2012 -12.1845 -12.1828
    -5.5716  -5.5703  -5.5413  -5.5410  -4.6570  -4.6497  -4.6254  -4.6177
    -4.0067  -4.0052  -3.9531  -3.9518  -3.2205  -3.2119  -3.1897  -3.1794
    -1.7463  -1.7315  -1.7019  -1.6620  -1.6323  -1.6139  -1.5976  -1.5816
    -0.8217  -0.8042  -0.7311  -0.7123

     occupation numbers 
     1.0000   1.0000   1.0000   1.0000   1.0000   1.0000   1.0000   1.0000
     1.0000   1.0000   1.0000   1.0000   1.0000   1.0000   1.0000   1.0000
     1.0000   1.0000   1.0000   1.0000   1.0000   1.0000   1.0000   1.0000
     1.0000   1.0000   1.0000   1.0000   1.0000   1.0000   1.0000   1.0000
     1.0000   1.0000   1.0000   1.0000   1.0000   1.0000   1.0000   1.0000
     1.0000   1.0000   1.0000   1.0000   1.0000   1.0000   1.0000   1.0000
     1.0000   1.0000   1.0000   1.0000

          k = 0.0833-0.6255 0.0000 ( 17408 PWs)   bands (ev):

   -60.6729 -60.6729 -60.6662 -60.6662 -36.6159 -36.6092 -36.6053 -36.5986
   -34.2250 -34.2183 -34.2125 -34.2058 -34.0281 -34.0256 -34.0214 -34.0189
   -12.2564 -12.2454 -12.2313 -12.2202 -12.0802 -12.0782 -12.0683 -12.0664
    -5.8396  -5.8275  -5.8224  -5.8101  -5.0060  -5.0007  -4.9853  -4.9798
    -4.1563  -4.1478  -4.1118  -4.1037  -3.2650  -3.2563  -3.2509  -3.2413
    -1.9275  -1.9216  -1.8475  -1.8435  -1.5488  -1.5329  -1.4742  -1.4577
    -0.5834  -0.5578  -0.4797  -0.4538

     occupation numbers 
     1.0000   1.0000   1.0000   1.0000   1.0000   1.0000   1.0000   1.0000
     1.0000   1.0000   1.0000   1.0000   1.0000   1.0000   1.0000   1.0000
     1.0000   1.0000   1.0000   1.0000   1.0000   1.0000   1.0000   1.0000
     1.0000   1.0000   1.0000   1.0000   1.0000   1.0000   1.0000   1.0000
     1.0000   1.0000   1.0000   1.0000   1.0000   1.0000   1.0000   1.0000
     1.0000   1.0000   1.0000   1.0000   1.0000   1.0000   1.0000   1.0000
     1.0000   1.0000   1.0000   1.0000

          k = 0.1667 0.2887 0.0000 ( 17421 PWs)   bands (ev):

   -60.6898 -60.6898 -60.6831 -60.6831 -36.5647 -36.5580 -36.5557 -36.5490
   -34.1242 -34.1211 -34.1175 -34.1144 -34.0176 -34.0110 -34.0079 -34.0012
   -13.1310 -13.1140 -13.1103 -13.0931 -12.4230 -12.4215 -12.3956 -12.3941
    -5.1515  -5.1264  -5.0701  -5.0454  -3.9325  -3.9251  -3.8812  -3.8739
    -3.8163  -3.7906  -3.7721  -3.7458  -3.3373  -3.3096  -3.2619  -3.2314
    -2.0432  -2.0338  -1.9639  -1.9550  -1.1119  -1.0756  -1.0070  -0.9710
    -0.8625  -0.8549  -0.7948  -0.7817

     occupation numbers 
     1.0000   1.0000   1.0000   1.0000   1.0000   1.0000   1.0000   1.0000
     1.0000   1.0000   1.0000   1.0000   1.0000   1.0000   1.0000   1.0000
     1.0000   1.0000   1.0000   1.0000   1.0000   1.0000   1.0000   1.0000
     1.0000   1.0000   1.0000   1.0000   1.0000   1.0000   1.0000   1.0000
     1.0000   1.0000   1.0000   1.0000   1.0000   1.0000   1.0000   1.0000
     1.0000   1.0000   1.0000   1.0000   1.0000   1.0000   1.0000   1.0000
     1.0000   1.0000   1.0000   1.0000

          k = 0.1667 0.3849 0.0000 ( 17399 PWs)   bands (ev):

   -60.6800 -60.6800 -60.6733 -60.6733 -36.5950 -36.5883 -36.5806 -36.5739
   -34.1714 -34.1648 -34.1570 -34.1503 -34.0406 -34.0346 -34.0339 -34.0280
   -12.6651 -12.6479 -12.6348 -12.6173 -12.2282 -12.2256 -12.2078 -12.2052
    -5.3184  -5.3035  -5.2764  -5.2634  -4.5263  -4.5118  -4.5102  -4.4959
    -3.8283  -3.8168  -3.7698  -3.7592  -3.4445  -3.4245  -3.3636  -3.3422
    -2.3458  -2.3336  -2.2705  -2.2585  -1.3952  -1.3717  -1.3346  -1.3149
    -0.8231  -0.8130  -0.7274  -0.7176

     occupation numbers 
     1.0000   1.0000   1.0000   1.0000   1.0000   1.0000   1.0000   1.0000
     1.0000   1.0000   1.0000   1.0000   1.0000   1.0000   1.0000   1.0000
     1.0000   1.0000   1.0000   1.0000   1.0000   1.0000   1.0000   1.0000
     1.0000   1.0000   1.0000   1.0000   1.0000   1.0000   1.0000   1.0000
     1.0000   1.0000   1.0000   1.0000   1.0000   1.0000   1.0000   1.0000
     1.0000   1.0000   1.0000   1.0000   1.0000   1.0000   1.0000   1.0000
     1.0000   1.0000   1.0000   1.0000

          k = 0.1667-0.6736 0.0000 ( 17387 PWs)   bands (ev):

   -60.6729 -60.6729 -60.6662 -60.6662 -36.6176 -36.6110 -36.5993 -36.5926
   -34.2116 -34.2049 -34.1873 -34.1807 -34.0507 -34.0491 -34.0440 -34.0424
   -12.2815 -12.2692 -12.2386 -12.2261 -12.0683 -12.0648 -12.0550 -12.0515
    -5.5082  -5.4969  -5.4853  -5.4726  -5.0727  -5.0635  -5.0615  -5.0522
    -3.9498  -3.9458  -3.9059  -3.9019  -3.3399  -3.3228  -3.2860  -3.2674
    -2.4625  -2.4376  -2.3952  -2.3699  -1.7704  -1.7583  -1.7243  -1.7149
    -0.5768  -0.5645  -0.4685  -0.4558

     occupation numbers 
     1.0000   1.0000   1.0000   1.0000   1.0000   1.0000   1.0000   1.0000
     1.0000   1.0000   1.0000   1.0000   1.0000   1.0000   1.0000   1.0000
     1.0000   1.0000   1.0000   1.0000   1.0000   1.0000   1.0000   1.0000
     1.0000   1.0000   1.0000   1.0000   1.0000   1.0000   1.0000   1.0000
     1.0000   1.0000   1.0000   1.0000   1.0000   1.0000   1.0000   1.0000
     1.0000   1.0000   1.0000   1.0000   1.0000   1.0000   1.0000   1.0000
     1.0000   1.0000   1.0000   1.0000

          k = 0.1667-0.5774 0.0000 ( 17396 PWs)   bands (ev):

   -60.6703 -60.6703 -60.6636 -60.6636 -36.6260 -36.6194 -36.6062 -36.5995
   -34.2270 -34.2203 -34.1991 -34.1924 -34.0535 -34.0535 -34.0468 -34.0468
   -12.1287 -12.1196 -12.0804 -12.0711 -12.0050 -12.0014 -11.9954 -11.9918
    -5.5850  -5.5700  -5.5577  -5.5424  -5.2719  -5.2650  -5.2612  -5.2542
    -4.0950  -4.0811  -4.0522  -4.0390  -3.2473  -3.2291  -3.2229  -3.2032
    -2.4482  -2.4217  -2.3837  -2.3566  -1.9563  -1.9492  -1.9072  -1.9026
    -0.4014  -0.3818  -0.2855  -0.2653

     occupation numbers 
     1.0000   1.0000   1.0000   1.0000   1.0000   1.0000   1.0000   1.0000
     1.0000   1.0000   1.0000   1.0000   1.0000   1.0000   1.0000   1.0000
     1.0000   1.0000   1.0000   1.0000   1.0000   1.0000   1.0000   1.0000
     1.0000   1.0000   1.0000   1.0000   1.0000   1.0000   1.0000   1.0000
     1.0000   1.0000   1.0000   1.0000   1.0000   1.0000   1.0000   1.0000
     1.0000   1.0000   1.0000   1.0000   1.0000   1.0000   1.0000   1.0000
     1.0000   1.0000   1.0000   1.0000

          k = 0.2500-0.7217 0.0000 ( 17360 PWs)   bands (ev):

   -60.6729 -60.6729 -60.6662 -60.6662 -36.6180 -36.6113 -36.5968 -36.5901
   -34.2025 -34.1959 -34.1715 -34.1648 -34.0648 -34.0637 -34.0581 -34.0570
   -12.2926 -12.2797 -12.2434 -12.2302 -12.0622 -12.0581 -12.0482 -12.0442
    -5.3064  -5.3038  -5.2769  -5.2722  -5.1036  -5.0971  -5.0925  -5.0861
    -3.6878  -3.6801  -3.6553  -3.6481  -3.3843  -3.3660  -3.3105  -3.2924
    -3.0428  -3.0326  -2.9855  -2.9763  -1.6711  -1.6600  -1.6529  -1.6451
    -0.6031  -0.5942  -0.4945  -0.4855

     occupation numbers 
     1.0000   1.0000   1.0000   1.0000   1.0000   1.0000   1.0000   1.0000
     1.0000   1.0000   1.0000   1.0000   1.0000   1.0000   1.0000   1.0000
     1.0000   1.0000   1.0000   1.0000   1.0000   1.0000   1.0000   1.0000
     1.0000   1.0000   1.0000   1.0000   1.0000   1.0000   1.0000   1.0000
     1.0000   1.0000   1.0000   1.0000   1.0000   1.0000   1.0000   1.0000
     1.0000   1.0000   1.0000   1.0000   1.0000   1.0000   1.0000   1.0000
     1.0000   1.0000   1.0000   1.0000

          k = 0.2500-0.6255 0.0000 ( 17372 PWs)   bands (ev):

   -60.6688 -60.6688 -60.6621 -60.6621 -36.6312 -36.6246 -36.6060 -36.5993
   -34.2217 -34.2151 -34.1778 -34.1711 -34.0843 -34.0776 -34.0759 -34.0691
   -12.0599 -12.0514 -11.9979 -11.9893 -11.9550 -11.9505 -11.9462 -11.9418
    -5.4654  -5.4586  -5.4573  -5.4505  -5.1800  -5.1607  -5.1512  -5.1308
    -3.9526  -3.9418  -3.9192  -3.9060  -3.3295  -3.3027  -3.2861  -3.2558
    -3.1612  -3.1245  -3.1175  -3.0784  -2.0168  -2.0120  -2.0012  -1.9954
    -0.2929  -0.2827  -0.1665  -0.1561

     occupation numbers 
     1.0000   1.0000   1.0000   1.0000   1.0000   1.0000   1.0000   1.0000
     1.0000   1.0000   1.0000   1.0000   1.0000   1.0000   1.0000   1.0000
     1.0000   1.0000   1.0000   1.0000   1.0000   1.0000   1.0000   1.0000
     1.0000   1.0000   1.0000   1.0000   1.0000   1.0000   1.0000   1.0000
     1.0000   1.0000   1.0000   1.0000   1.0000   1.0000   1.0000   1.0000
     1.0000   1.0000   1.0000   1.0000   1.0000   1.0000   1.0000   1.0000
     1.0000   1.0000   1.0000   1.0000

          k = 0.3333-0.5774 0.0000 ( 17382 PWs)   bands (ev):

   -60.6673 -60.6673 -60.6606 -60.6606 -36.6361 -36.6294 -36.6083 -36.6016
   -34.2244 -34.2177 -34.1674 -34.1608 -34.1044 -34.0977 -34.0863 -34.0796
   -11.9768 -11.9701 -11.9097 -11.9077 -11.9054 -11.9030 -11.9010 -11.8986
    -5.6203  -5.6138  -5.6134  -5.6069  -4.7644  -4.7569  -4.7289  -4.7213
    -4.2585  -4.2538  -4.1950  -4.1906  -3.6271  -3.6234  -3.6076  -3.6038
    -2.9887  -2.9819  -2.9389  -2.9316  -2.2179  -2.2072  -2.1946  -2.1842
    -0.1018  -0.0948   0.0443   0.0514

     occupation numbers 
     1.0000   1.0000   1.0000   1.0000   1.0000   1.0000   1.0000   1.0000
     1.0000   1.0000   1.0000   1.0000   1.0000   1.0000   1.0000   1.0000
     1.0000   1.0000   1.0000   1.0000   1.0000   1.0000   1.0000   1.0000
     1.0000   1.0000   1.0000   1.0000   1.0000   1.0000   1.0000   1.0000
     1.0000   1.0000   1.0000   1.0000   1.0000   1.0000   1.0000   1.0000
     1.0000   1.0000   1.0000   1.0000   1.0000   1.0000   1.0000   1.0000
     1.0000   1.0000   1.0000   1.0000

     highest occupied level (ev):     0.1229

!    total energy              =    -387.05867652 Ry
     Harris-Foulkes estimate   =    -387.05867651 Ry
     estimated scf accuracy    <          9.2E-11 Ry

     The total energy is the sum of the following terms:

     one-electron contribution =   -4868.62296046 Ry
     hartree contribution      =    2437.80961564 Ry
     xc contribution           =     -84.93796846 Ry
     ewald contribution        =    2128.78648478 Ry
     Dispersion Correction     =      -0.09384802 Ry

     convergence has been achieved in 102 iterations

     Forces acting on atoms (Ry/au):


     negative rho (up, down):  1.320E-04 0.000E+00
     atom    1 type  1   force =     0.00000000    0.00000000    0.00092071
     atom    2 type  2   force =     0.00000000    0.00000000    0.00013767
     atom    3 type  2   force =     0.00000000    0.00000000    0.00269194
     atom    4 type  1   force =     0.00000000    0.00000000   -0.00088093
     atom    5 type  2   force =     0.00000000    0.00000000   -0.00270230
     atom    6 type  2   force =     0.00000000    0.00000000   -0.00016709
     The non-local contrib.  to forces
     atom    1 type  1   force =     0.00000000    0.00000000   -0.00030064
     atom    2 type  2   force =     0.00000000    0.00000000    0.20172408
     atom    3 type  2   force =     0.00000000    0.00000000   -0.19917675
     atom    4 type  1   force =     0.00000000    0.00000000    0.00031820
     atom    5 type  2   force =     0.00000000    0.00000000    0.19915658
     atom    6 type  2   force =     0.00000000    0.00000000   -0.20177163
     The ionic contribution  to forces
     atom    1 type  1   force =     0.00000002    0.00000001  -87.85402145
     atom    2 type  2   force =    -0.00000001   -0.00000000  -72.70895726
     atom    3 type  2   force =    -0.00000001   -0.00000000   -2.58995448
     atom    4 type  1   force =    -0.00000001   -0.00000000   87.85511649
     atom    5 type  2   force =     0.00000000    0.00000000    2.58886139
     atom    6 type  2   force =     0.00000000    0.00000000   72.70895531
     The local contribution  to forces
     atom    1 type  1   force =     0.00000022    0.00000013   87.85428228
     atom    2 type  2   force =    -0.00000001   -0.00000001   72.50926549
     atom    3 type  2   force =    -0.00000001   -0.00000001    2.78796382
     atom    4 type  1   force =    -0.00000022   -0.00000013  -87.85535733
     atom    5 type  2   force =    -0.00000000   -0.00000000   -2.78686489
     atom    6 type  2   force =    -0.00000000    0.00000000  -72.50925246
     The core correction contribution to forces
     atom    1 type  1   force =    -0.00000000   -0.00000000    0.00002821
     atom    2 type  2   force =     0.00000000    0.00000000   -0.00402003
     atom    3 type  2   force =     0.00000000    0.00000000    0.00389294
     atom    4 type  1   force =     0.00000000    0.00000000   -0.00003023
     atom    5 type  2   force =    -0.00000000   -0.00000000   -0.00389133
     atom    6 type  2   force =    -0.00000000   -0.00000000    0.00402217
     The Hubbard contrib.    to forces
     atom    1 type  1   force =     0.00000000    0.00000000    0.00000000
     atom    2 type  2   force =     0.00000000    0.00000000    0.00000000
     atom    3 type  2   force =     0.00000000    0.00000000    0.00000000
     atom    4 type  1   force =     0.00000000    0.00000000    0.00000000
     atom    5 type  2   force =     0.00000000    0.00000000    0.00000000
     atom    6 type  2   force =     0.00000000    0.00000000    0.00000000
     The SCF correction term to forces
     atom    1 type  1   force =     0.00000000    0.00000000    0.00000979
     atom    2 type  2   force =    -0.00000000   -0.00000000    0.00000621
     atom    3 type  2   force =    -0.00000000   -0.00000000   -0.00000030
     atom    4 type  1   force =    -0.00000000   -0.00000000   -0.00000417
[...]

          k = 0.0833 0.2406 0.0000 ( 17472 PWs)   bands (ev):

   -60.7351 -60.7351 -60.6525 -60.6525 -36.5718 -36.5681 -36.4894 -36.4856
   -34.1295 -34.1282 -34.0471 -34.0458 -34.0157 -34.0089 -33.9332 -33.9265
   -13.6844 -13.6781 -13.4724 -13.4654 -12.7277 -12.7268 -12.4685 -12.4677
    -5.5595  -5.5492  -4.9550  -4.9438  -3.8455  -3.8374  -3.7760  -3.7638
    -3.5639  -3.5560  -3.1503  -3.1331  -2.7058  -2.7022  -2.6127  -2.6006
    -2.0976  -2.0562  -2.0069  -1.9665  -1.2205  -1.1883  -0.8462  -0.8257
    -0.6542  -0.6330  -0.4920  -0.4644

     occupation numbers 
     1.0000   1.0000   1.0000   1.0000   1.0000   1.0000   1.0000   1.0000
     1.0000   1.0000   1.0000   1.0000   1.0000   1.0000   1.0000   1.0000
     1.0000   1.0000   1.0000   1.0000   1.0000   1.0000   1.0000   1.0000
     1.0000   1.0000   1.0000   1.0000   1.0000   1.0000   1.0000   1.0000
     1.0000   1.0000   1.0000   1.0000   1.0000   1.0000   1.0000   1.0000
     1.0000   1.0000   1.0000   1.0000   1.0000   1.0000   1.0000   1.0000
     1.0000   1.0000   1.0000   1.0000

          k = 0.0833 0.3368 0.0000 ( 17423 PWs)   bands (ev):

   -60.7238 -60.7238 -60.6413 -60.6413 -36.6049 -36.5983 -36.5225 -36.5158
   -34.1750 -34.1718 -34.0926 -34.0894 -34.0487 -34.0424 -33.9662 -33.9600
   -13.1861 -13.1742 -12.9909 -12.9775 -12.5025 -12.5007 -12.2940 -12.2926
    -5.4729  -5.4569  -5.1044  -5.0922  -4.2745  -4.2695  -4.0780  -4.0747
    -3.9311  -3.9210  -3.7576  -3.7505  -3.1140  -3.1076  -2.9579  -2.9434
    -1.8763  -1.8061  -1.7761  -1.7110  -1.4891  -1.4552  -1.1738  -1.1556
    -0.9745  -0.9132  -0.8740  -0.8109

     occupation numbers 
     1.0000   1.0000   1.0000   1.0000   1.0000   1.0000   1.0000   1.0000
     1.0000   1.0000   1.0000   1.0000   1.0000   1.0000   1.0000   1.0000
     1.0000   1.0000   1.0000   1.0000   1.0000   1.0000   1.0000   1.0000
     1.0000   1.0000   1.0000   1.0000   1.0000   1.0000   1.0000   1.0000
     1.0000   1.0000   1.0000   1.0000   1.0000   1.0000   1.0000   1.0000
     1.0000   1.0000   1.0000   1.0000   1.0000   1.0000   1.0000   1.0000
     1.0000   1.0000   1.0000   1.0000

          k = 0.0833 0.4330 0.0000 ( 17369 PWs)   bands (ev):

   -60.7141 -60.7141 -60.6315 -60.6315 -36.6348 -36.6257 -36.5524 -36.5432
   -34.2289 -34.2197 -34.1465 -34.1373 -34.0612 -34.0574 -33.9788 -33.9750
   -12.6877 -12.6695 -12.5241 -12.5037 -12.2810 -12.2776 -12.1320 -12.1297
    -5.7135  -5.7092  -5.5180  -5.5164  -4.7903  -4.7840  -4.6140  -4.6030
    -4.1265  -4.1152  -3.8750  -3.8685  -3.2918  -3.2843  -3.1445  -3.1325
    -1.8769  -1.8571  -1.7441  -1.6867  -1.6570  -1.5893  -1.5018  -1.4789
    -0.8623  -0.7771  -0.7674  -0.6795

     occupation numbers 
     1.0000   1.0000   1.0000   1.0000   1.0000   1.0000   1.0000   1.0000
     1.0000   1.0000   1.0000   1.0000   1.0000   1.0000   1.0000   1.0000
     1.0000   1.0000   1.0000   1.0000   1.0000   1.0000   1.0000   1.0000
     1.0000   1.0000   1.0000   1.0000   1.0000   1.0000   1.0000   1.0000
     1.0000   1.0000   1.0000   1.0000   1.0000   1.0000   1.0000   1.0000
     1.0000   1.0000   1.0000   1.0000   1.0000   1.0000   1.0000   1.0000
     1.0000   1.0000   1.0000   1.0000

          k = 0.0833-0.6255 0.0000 ( 17408 PWs)   bands (ev):

   -60.7085 -60.7085 -60.6259 -60.6259 -36.6527 -36.6420 -36.5702 -36.5596
   -34.2623 -34.2497 -34.1798 -34.1673 -34.0651 -34.0626 -33.9826 -33.9802
   -12.3527 -12.3303 -12.2288 -12.2053 -12.1372 -12.1307 -12.0359 -12.0329
    -5.9545  -5.9438  -5.8156  -5.8034  -5.1242  -5.1188  -4.9683  -4.9617
    -4.2861  -4.2770  -4.0309  -4.0230  -3.3331  -3.3246  -3.2290  -3.2185
    -2.0754  -2.0578  -1.7475  -1.7348  -1.6479  -1.5743  -1.4762  -1.3983
    -0.6342  -0.5312  -0.5194  -0.4177

     occupation numbers 
     1.0000   1.0000   1.0000   1.0000   1.0000   1.0000   1.0000   1.0000
     1.0000   1.0000   1.0000   1.0000   1.0000   1.0000   1.0000   1.0000
     1.0000   1.0000   1.0000   1.0000   1.0000   1.0000   1.0000   1.0000
     1.0000   1.0000   1.0000   1.0000   1.0000   1.0000   1.0000   1.0000
     1.0000   1.0000   1.0000   1.0000   1.0000   1.0000   1.0000   1.0000
     1.0000   1.0000   1.0000   1.0000   1.0000   1.0000   1.0000   1.0000
     1.0000   1.0000   1.0000   1.0000

          k = 0.1667 0.2887 0.0000 ( 17421 PWs)   bands (ev):

   -60.7253 -60.7253 -60.6428 -60.6428 -36.6014 -36.5924 -36.5189 -36.5099
   -34.1614 -34.1583 -34.0789 -34.0758 -34.0546 -34.0448 -33.9722 -33.9623
   -13.2610 -13.2451 -13.0624 -13.0447 -12.5331 -12.5308 -12.3160 -12.3142
    -5.4064  -5.3809  -4.9739  -4.9507  -4.0963  -4.0938  -3.9515  -3.9484
    -3.8170  -3.8056  -3.6842  -3.6684  -3.4025  -3.3789  -3.1137  -3.0832
    -2.1127  -2.0346  -2.0076  -1.9308  -1.1845  -1.1431  -0.9658  -0.9377
    -0.8950  -0.8437  -0.8148  -0.7569

     occupation numbers 
     1.0000   1.0000   1.0000   1.0000   1.0000   1.0000   1.0000   1.0000
     1.0000   1.0000   1.0000   1.0000   1.0000   1.0000   1.0000   1.0000
     1.0000   1.0000   1.0000   1.0000   1.0000   1.0000   1.0000   1.0000
     1.0000   1.0000   1.0000   1.0000   1.0000   1.0000   1.0000   1.0000
     1.0000   1.0000   1.0000   1.0000   1.0000   1.0000   1.0000   1.0000
     1.0000   1.0000   1.0000   1.0000   1.0000   1.0000   1.0000   1.0000
     1.0000   1.0000   1.0000   1.0000

          k = 0.1667 0.3849 0.0000 ( 17399 PWs)   bands (ev):

   -60.7156 -60.7156 -60.6330 -60.6330 -36.6318 -36.6173 -36.5493 -36.5349
   -34.2087 -34.1942 -34.1262 -34.1117 -34.0776 -34.0716 -33.9952 -33.9892
   -12.7838 -12.7559 -12.6111 -12.5802 -12.3130 -12.3082 -12.1491 -12.1460
    -5.4906  -5.4706  -5.2290  -5.2196  -4.6101  -4.5954  -4.5277  -4.5126
    -3.9732  -3.9591  -3.7681  -3.7559  -3.5172  -3.4995  -3.2026  -3.1796
    -2.4253  -2.3506  -2.2977  -2.2239  -1.4702  -1.4466  -1.2981  -1.2806
    -0.8788  -0.7841  -0.7665  -0.6736

     occupation numbers 
     1.0000   1.0000   1.0000   1.0000   1.0000   1.0000   1.0000   1.0000
     1.0000   1.0000   1.0000   1.0000   1.0000   1.0000   1.0000   1.0000
     1.0000   1.0000   1.0000   1.0000   1.0000   1.0000   1.0000   1.0000
     1.0000   1.0000   1.0000   1.0000   1.0000   1.0000   1.0000   1.0000
     1.0000   1.0000   1.0000   1.0000   1.0000   1.0000   1.0000   1.0000
     1.0000   1.0000   1.0000   1.0000   1.0000   1.0000   1.0000   1.0000
     1.0000   1.0000   1.0000   1.0000

          k = 0.1667-0.6736 0.0000 ( 17387 PWs)   bands (ev):

   -60.7085 -60.7085 -60.6259 -60.6259 -36.6545 -36.6360 -36.5720 -36.5535
   -34.2489 -34.2245 -34.1665 -34.1421 -34.0877 -34.0861 -34.0053 -34.0037
   -12.3819 -12.3437 -12.2491 -12.2083 -12.1283 -12.1178 -12.0188 -12.0143
    -5.6388  -5.6327  -5.4687  -5.4537  -5.1496  -5.1405  -5.0556  -5.0458
    -4.1053  -4.0979  -3.8602  -3.8526  -3.4443  -3.4300  -3.2042  -3.1822
    -2.5821  -2.5172  -2.3717  -2.3052  -1.8554  -1.8395  -1.6595  -1.6510
    -0.6257  -0.5221  -0.5177  -0.4140

     occupation numbers 
     1.0000   1.0000   1.0000   1.0000   1.0000   1.0000   1.0000   1.0000
     1.0000   1.0000   1.0000   1.0000   1.0000   1.0000   1.0000   1.0000
     1.0000   1.0000   1.0000   1.0000   1.0000   1.0000   1.0000   1.0000
     1.0000   1.0000   1.0000   1.0000   1.0000   1.0000   1.0000   1.0000
     1.0000   1.0000   1.0000   1.0000   1.0000   1.0000   1.0000   1.0000
     1.0000   1.0000   1.0000   1.0000   1.0000   1.0000   1.0000   1.0000
     1.0000   1.0000   1.0000   1.0000

          k = 0.1667-0.5774 0.0000 ( 17396 PWs)   bands (ev):

   -60.7059 -60.7059 -60.6233 -60.6233 -36.6629 -36.6429 -36.5804 -36.5605
   -34.2643 -34.2363 -34.1818 -34.1538 -34.0906 -34.0905 -34.0082 -34.0081
   -12.2152 -12.1735 -12.1104 -12.0751 -12.0558 -12.0343 -11.9691 -11.9640
    -5.7075  -5.6840  -5.5662  -5.5401  -5.3495  -5.3411  -5.2463  -5.2391
    -4.2419  -4.2264  -3.9861  -3.9727  -3.3382  -3.3215  -3.2010  -3.1757
    -2.5916  -2.5316  -2.3532  -2.2907  -2.0268  -2.0076  -1.8330  -1.8238
    -0.4546  -0.3394  -0.3364  -0.2209

     occupation numbers 
     1.0000   1.0000   1.0000   1.0000   1.0000   1.0000   1.0000   1.0000
     1.0000   1.0000   1.0000   1.0000   1.0000   1.0000   1.0000   1.0000
     1.0000   1.0000   1.0000   1.0000   1.0000   1.0000   1.0000   1.0000
     1.0000   1.0000   1.0000   1.0000   1.0000   1.0000   1.0000   1.0000
     1.0000   1.0000   1.0000   1.0000   1.0000   1.0000   1.0000   1.0000
     1.0000   1.0000   1.0000   1.0000   1.0000   1.0000   1.0000   1.0000
     1.0000   1.0000   1.0000   1.0000

          k = 0.2500-0.7217 0.0000 ( 17360 PWs)   bands (ev):

   -60.7085 -60.7085 -60.6259 -60.6259 -36.6548 -36.6335 -36.5724 -36.5510
   -34.2398 -34.2086 -34.1574 -34.1262 -34.1019 -34.1007 -34.0194 -34.0183
   -12.3950 -12.3511 -12.2580 -12.2109 -12.1238 -12.1120 -12.0101 -12.0050
    -5.4594  -5.4543  -5.2514  -5.2438  -5.1539  -5.1454  -5.0944  -5.0836
    -3.8704  -3.8520  -3.7307  -3.7234  -3.4482  -3.4294  -3.1705  -3.1359
    -3.0852  -3.0411  -2.9933  -2.9436  -1.7598  -1.7519  -1.6060  -1.5914
    -0.6526  -0.5484  -0.5426  -0.4387

     occupation numbers 
     1.0000   1.0000   1.0000   1.0000   1.0000   1.0000   1.0000   1.0000
     1.0000   1.0000   1.0000   1.0000   1.0000   1.0000   1.0000   1.0000
     1.0000   1.0000   1.0000   1.0000   1.0000   1.0000   1.0000   1.0000
     1.0000   1.0000   1.0000   1.0000   1.0000   1.0000   1.0000   1.0000
     1.0000   1.0000   1.0000   1.0000   1.0000   1.0000   1.0000   1.0000
     1.0000   1.0000   1.0000   1.0000   1.0000   1.0000   1.0000   1.0000
     1.0000   1.0000   1.0000   1.0000

          k = 0.2500-0.6255 0.0000 ( 17372 PWs)   bands (ev):

   -60.7044 -60.7044 -60.6218 -60.6218 -36.6681 -36.6427 -36.5856 -36.5602
   -34.2590 -34.2149 -34.1766 -34.1325 -34.1215 -34.1129 -34.0390 -34.0305
   -12.1418 -12.0896 -12.0467 -12.0101 -12.0024 -11.9662 -11.9227 -11.9141
    -5.5423  -5.5342  -5.4720  -5.4632  -5.2777  -5.2546  -5.1426  -5.1114
    -4.1017  -4.0870  -3.8866  -3.8642  -3.5048  -3.4685  -3.3300  -3.2846
    -3.1622  -3.1200  -3.0325  -2.9894  -2.0942  -2.0889  -1.9293  -1.9235
    -0.3400  -0.2389  -0.2138  -0.1127

     occupation numbers 
     1.0000   1.0000   1.0000   1.0000   1.0000   1.0000   1.0000   1.0000
     1.0000   1.0000   1.0000   1.0000   1.0000   1.0000   1.0000   1.0000
     1.0000   1.0000   1.0000   1.0000   1.0000   1.0000   1.0000   1.0000
     1.0000   1.0000   1.0000   1.0000   1.0000   1.0000   1.0000   1.0000
     1.0000   1.0000   1.0000   1.0000   1.0000   1.0000   1.0000   1.0000
     1.0000   1.0000   1.0000   1.0000   1.0000   1.0000   1.0000   1.0000
     1.0000   1.0000   1.0000   1.0000

          k = 0.3333-0.5774 0.0000 ( 17382 PWs)   bands (ev):

   -60.7029 -60.7029 -60.6203 -60.6203 -36.6729 -36.6450 -36.5905 -36.5625
   -34.2617 -34.2044 -34.1793 -34.1416 -34.1234 -34.1220 -34.0592 -34.0410
   -12.0457 -11.9905 -11.9671 -11.9658 -11.9476 -11.9143 -11.8804 -11.8599
    -5.6873  -5.6804  -5.6170  -5.6094  -4.8751  -4.8424  -4.7614  -4.7256
    -4.3151  -4.3077  -4.2640  -4.2449  -3.6926  -3.6848  -3.6387  -3.6315
    -3.0271  -2.9998  -2.9615  -2.9184  -2.2942  -2.2733  -2.1067  -2.0912
    -0.1478  -0.0516  -0.0021   0.0942

     occupation numbers 
     1.0000   1.0000   1.0000   1.0000   1.0000   1.0000   1.0000   1.0000
     1.0000   1.0000   1.0000   1.0000   1.0000   1.0000   1.0000   1.0000
     1.0000   1.0000   1.0000   1.0000   1.0000   1.0000   1.0000   1.0000
     1.0000   1.0000   1.0000   1.0000   1.0000   1.0000   1.0000   1.0000
     1.0000   1.0000   1.0000   1.0000   1.0000   1.0000   1.0000   1.0000
     1.0000   1.0000   1.0000   1.0000   1.0000   1.0000   1.0000   1.0000
     1.0000   1.0000   1.0000   1.0000

     highest occupied level (ev):     0.6136

!    total energy              =    -387.06714643 Ry
     Harris-Foulkes estimate   =    -387.06714643 Ry
     estimated scf accuracy    <          3.4E-13 Ry

     The total energy is the sum of the following terms:

     one-electron contribution =   -5545.30578962 Ry
     hartree contribution      =    2776.14618963 Ry
     xc contribution           =     -84.97382562 Ry
     ewald contribution        =    2467.16839922 Ry
     Dispersion Correction     =      -0.10212004 Ry

     convergence has been achieved in  23 iterations

     Forces acting on atoms (Ry/au):


     negative rho (up, down):  1.433E-04 0.000E+00
     atom    1 type  1   force =     0.00000000    0.00000000    0.00000261
     atom    2 type  2   force =     0.00000000    0.00000000    0.00001265
     atom    3 type  2   force =     0.00000000    0.00000000   -0.00001245
     atom    4 type  1   force =     0.00000000    0.00000000   -0.00000296
     atom    5 type  2   force =     0.00000000    0.00000000    0.00001095
     atom    6 type  2   force =     0.00000000    0.00000000   -0.00001079
     The non-local contrib.  to forces
     atom    1 type  1   force =    -0.00000000   -0.00000000   -0.00047308
     atom    2 type  2   force =     0.00000000    0.00000000    0.20148617
     atom    3 type  2   force =     0.00000000    0.00000000   -0.19742820
     atom    4 type  1   force =     0.00000000    0.00000000    0.00165510
     atom    5 type  2   force =     0.00000000    0.00000000    0.19359792
     atom    6 type  2   force =     0.00000000    0.00000000   -0.20145583
     The ionic contribution  to forces
     atom    1 type  1   force =     0.00000002    0.00000001  -97.00352894
     atom    2 type  2   force =    -0.00000001   -0.00000000  -76.63839554
     atom    3 type  2   force =    -0.00000001   -0.00000000   -6.46597847
     atom    4 type  1   force =    -0.00000001   -0.00000000   97.01850194
     atom    5 type  2   force =     0.00000000    0.00000000    6.45271620
     atom    6 type  2   force =     0.00000000    0.00000000   76.63668481
     The local contribution  to forces
     atom    1 type  1   force =     0.00000022    0.00000013   97.00150756
     atom    2 type  2   force =    -0.00000001   -0.00000001   76.43865802
     atom    3 type  2   force =    -0.00000001   -0.00000001    6.66065874
     atom    4 type  1   force =    -0.00000022   -0.00000013  -97.01753605
     atom    5 type  2   force =    -0.00000000   -0.00000000   -6.64379441
     atom    6 type  2   force =    -0.00000000    0.00000000  -76.43696845
     The core correction contribution to forces
     atom    1 type  1   force =    -0.00000000   -0.00000000    0.00010891
     atom    2 type  2   force =     0.00000000    0.00000000   -0.00401136
     atom    3 type  2   force =     0.00000000    0.00000000    0.00388835
     atom    4 type  1   force =     0.00000000    0.00000000   -0.00020323
     atom    5 type  2   force =    -0.00000000   -0.00000000   -0.00369669
     atom    6 type  2   force =    -0.00000000   -0.00000000    0.00400381
     The Hubbard contrib.    to forces
     atom    1 type  1   force =     0.00000000    0.00000000    0.00000000
     atom    2 type  2   force =     0.00000000    0.00000000    0.00000000
     atom    3 type  2   force =     0.00000000    0.00000000    0.00000000
     atom    4 type  1   force =     0.00000000    0.00000000    0.00000000
     atom    5 type  2   force =     0.00000000    0.00000000    0.00000000
     atom    6 type  2   force =     0.00000000    0.00000000    0.00000000
     The SCF correction term to forces
     atom    1 type  1   force =     0.00000000    0.00000000   -0.00000243
     atom    2 type  2   force =     0.00000000    0.00000000   -0.00000079
     atom    3 type  2   force =     0.00000000    0.00000000   -0.00000041
     atom    4 type  1   force =    -0.00000000   -0.00000000    0.00000299
     atom    5 type  2   force =     0.00000000    0.00000000    0.00000056
     atom    6 type  2   force =     0.00000000    0.00000000    0.00000093

     Dispersion contribution to forces:
     atom    1 type  1   force =    -0.00000000   -0.00000000    0.00239027
     atom    2 type  2   force =     0.00000000    0.00000000    0.00227584
     atom    3 type  2   force =     0.00000000    0.00000000   -0.00115277
     atom    4 type  1   force =     0.00000000    0.00000000   -0.00242402
     atom    5 type  2   force =    -0.00000000   -0.00000000    0.00118706
     atom    6 type  2   force =    -0.00000000   -0.00000000   -0.00227637

     Total force =     0.000024     Total SCF correction =     0.000004

     Total Dispersion Force =     0.004969
     SCF correction compared to forces is large: reduce conv_thr to get better values

     bfgs converged in  26 scf cycles and  24 bfgs steps
     (criteria: energy <  1.0E-06, force <  1.0E-03)

     End of BFGS Geometry Optimization

     Final energy   =    -387.0671464330 Ry
Begin final coordinates

ATOMIC_POSITIONS (crystal)
Mo       0.333333333   0.333333333   0.412410827    0   0   1
S        0.666666667   0.666666667   0.366711239    0   0   1
S        0.666666667   0.666666667   0.458022886    0   0   1
Mo       0.666666667   0.666666667   0.587610315    0   0   1
S        0.000000000   0.000000000   0.541963521    0   0   1
S        0.000000000   0.000000000   0.633281164    0   0   1
End final coordinates



     Writing output data file leads.save

     init_run     :     25.97s CPU     26.31s WALL (       1 calls)
     electrons    :  50611.11s CPU  51249.89s WALL (      26 calls)
     update_pot   :    171.84s CPU    173.84s WALL (      25 calls)
     forces       :    443.73s CPU    448.28s WALL (      26 calls)

     Called by init_run:
     wfcinit      :     15.02s CPU     15.23s WALL (       1 calls)
     potinit      :      2.34s CPU      2.37s WALL (       1 calls)

     Called by electrons:
     c_bands      :  33655.13s CPU  34058.12s WALL (    1291 calls)
     sum_band     :  11915.52s CPU  12070.60s WALL (    1291 calls)
     v_of_rho     :    333.42s CPU    343.15s WALL (    1306 calls)
     v_h          :     21.43s CPU     21.75s WALL (    1306 calls)
     v_xc         :    318.13s CPU    327.85s WALL (    1332 calls)
     newd         :   4512.42s CPU   4579.10s WALL (    1306 calls)
     mix_rho      :    182.74s CPU    186.10s WALL (    1291 calls)

     Called by c_bands:
     init_us_2    :     99.90s CPU    100.80s WALL (   49571 calls)
     cegterg      :  32553.34s CPU  32947.08s WALL (   24529 calls)

     Called by sum_band:
     sum_band:bec :     43.55s CPU     43.73s WALL (   24529 calls)
     addusdens    :   3537.75s CPU   3586.00s WALL (    1291 calls)

     Called by *egterg:
     h_psi        :  19429.29s CPU  19665.20s WALL (   83103 calls)
     s_psi        :   3040.06s CPU   3071.24s WALL (   83103 calls)
     g_psi        :     76.00s CPU     76.63s WALL (   58555 calls)
     cdiaghg      :    937.91s CPU    941.34s WALL (   82400 calls)
     cegterg:over :   3969.76s CPU   4025.49s WALL (   58555 calls)
     cegterg:upda :   2041.28s CPU   2061.63s WALL (   58555 calls)
     cegterg:last :   1458.01s CPU   1473.65s WALL (   24950 calls)

     Called by h_psi:
     h_psi:vloc   :  13144.21s CPU  13310.74s WALL (   83103 calls)
     h_psi:vnl    :   6218.03s CPU   6286.09s WALL (   83103 calls)
     add_vuspsi   :   3059.55s CPU   3089.96s WALL (   83103 calls)

     General routines
     calbec       :   4468.90s CPU   4522.76s WALL (  108126 calls)
     fft          :    666.35s CPU    683.83s WALL (   40416 calls)
     ffts         :      9.20s CPU      9.49s WALL (   10388 calls)
     fftw         :   7672.85s CPU   7786.96s WALL (15085360 calls)
     interpolate  :    149.88s CPU    152.33s WALL (   10388 calls)

     Parallel routines
     fft_scatter  :   4433.28s CPU   4524.08s WALL (15136164 calls)

     PWSCF        :    14h15m CPU       14h26m WALL


   This run was terminated on:   1:44:58  18Mar2015            

=------------------------------------------------------------------------------=
   JOB DONE.
=------------------------------------------------------------------------------=
