
     Program PROJWFC v.5.0.1 starts on 10Dec2013 at 15:23:43 

     This program is part of the open-source Quantum ESPRESSO suite
     for quantum simulation of materials; please cite
         "P. Giannozzi et al., J. Phys.:Condens. Matter 21 395502 (2009);
          URL http://www.quantum-espresso.org", 
     in publications or presentations arising from this work. More details at
     http://www.quantum-espresso.org/quote.php

     Parallel version (MPI), running on     1 processors

   Info: using nr1, nr2, nr3 values from input

   Info: using nr1s, nr2s, nr3s values from input

     IMPORTANT: XC functional enforced from input :
     Exchange-correlation      =  SLA  PZ   NOGX NOGC ( 1 1 0 0 0)
     EXX-fraction              =        0.00
     Any further DFT definition will be discarded
     Please, verify this is what you really want


     G-vector sticks info
     --------------------
     sticks:   dense  smooth     PW     G-vecs:    dense   smooth      PW
     Sum         253     253     91                 2733     2733     609


     Gaussian broadening (default values): ngauss,degauss=   0    0.000735


     Calling projwave .... 

     Atomic states used for projection
     (read from pseudopotential files):

     state #   1: atom   1 (Si ), wfc  1 (l=0 m= 1)
     state #   2: atom   1 (Si ), wfc  2 (l=1 m= 1)
     state #   3: atom   1 (Si ), wfc  2 (l=1 m= 2)
     state #   4: atom   1 (Si ), wfc  2 (l=1 m= 3)
     state #   5: atom   2 (Si ), wfc  1 (l=0 m= 1)
     state #   6: atom   2 (Si ), wfc  2 (l=1 m= 1)
     state #   7: atom   2 (Si ), wfc  2 (l=1 m= 2)
     state #   8: atom   2 (Si ), wfc  2 (l=1 m= 3)

 k =   0.0000000000  0.0000000000  0.0000000000
==== e(   1) =    -5.80989 eV ==== 
     psi = 0.498*[#   1]+0.498*[#   5]+
    |psi|^2 = 0.995
==== e(   2) =     6.25489 eV ==== 
     psi = 0.160*[#   2]+0.160*[#   3]+0.160*[#   4]+0.160*[#   6]+0.160*[#   7]+
          +0.160*[#   8]+
    |psi|^2 = 0.963
==== e(   3) =     6.25489 eV ==== 
     psi = 0.160*[#   2]+0.160*[#   3]+0.160*[#   4]+0.160*[#   6]+0.160*[#   7]+
          +0.160*[#   8]+
    |psi|^2 = 0.963
==== e(   4) =     6.25489 eV ==== 
     psi = 0.160*[#   2]+0.160*[#   3]+0.160*[#   4]+0.160*[#   6]+0.160*[#   7]+
          +0.160*[#   8]+
    |psi|^2 = 0.963
==== e(   5) =     8.82205 eV ==== 
     psi = 0.161*[#   2]+0.161*[#   3]+0.161*[#   4]+0.161*[#   6]+0.161*[#   7]+
          +0.161*[#   8]+
    |psi|^2 = 0.966
==== e(   6) =     8.82205 eV ==== 
     psi = 0.161*[#   2]+0.161*[#   3]+0.161*[#   4]+0.161*[#   6]+0.161*[#   7]+
          +0.161*[#   8]+
    |psi|^2 = 0.966
==== e(   7) =     8.82205 eV ==== 
     psi = 0.161*[#   2]+0.161*[#   3]+0.161*[#   4]+0.161*[#   6]+0.161*[#   7]+
          +0.161*[#   8]+
    |psi|^2 = 0.966
==== e(   8) =     9.72317 eV ==== 
     psi = 0.489*[#   1]+0.489*[#   5]+
    |psi|^2 = 0.978

 k =   0.0000000000  0.0000000000  0.1000000000
==== e(   1) =    -5.76681 eV ==== 
     psi = 0.485*[#   1]+0.485*[#   5]+0.004*[#   2]+0.004*[#   3]+0.004*[#   4]+
          +0.004*[#   6]+0.004*[#   7]+0.004*[#   8]+
    |psi|^2 = 0.995
==== e(   2) =     5.98100 eV ==== 
     psi = 0.148*[#   2]+0.148*[#   3]+0.148*[#   4]+0.148*[#   6]+0.148*[#   7]+
          +0.148*[#   8]+0.039*[#   1]+0.039*[#   5]+
    |psi|^2 = 0.965
==== e(   3) =     6.07224 eV ==== 
     psi = 0.161*[#   2]+0.161*[#   3]+0.161*[#   4]+0.161*[#   6]+0.161*[#   7]+
          +0.161*[#   8]+
    |psi|^2 = 0.967
==== e(   4) =     6.07224 eV ==== 
     psi = 0.161*[#   2]+0.161*[#   3]+0.161*[#   4]+0.161*[#   6]+0.161*[#   7]+
          +0.161*[#   8]+
    |psi|^2 = 0.967
==== e(   5) =     8.71044 eV ==== 
     psi = 0.157*[#   2]+0.157*[#   3]+0.157*[#   4]+0.157*[#   6]+0.157*[#   7]+
          +0.157*[#   8]+0.012*[#   1]+0.012*[#   5]+
    |psi|^2 = 0.965
==== e(   6) =     9.05709 eV ==== 
     psi = 0.160*[#   2]+0.160*[#   3]+0.160*[#   4]+0.160*[#   6]+0.160*[#   7]+
          +0.160*[#   8]+
    |psi|^2 = 0.959
==== e(   7) =     9.05709 eV ==== 
     psi = 0.160*[#   2]+0.160*[#   3]+0.160*[#   4]+0.160*[#   6]+0.160*[#   7]+
          +0.160*[#   8]+
    |psi|^2 = 0.959
==== e(   8) =     9.98378 eV ==== 
     psi = 0.450*[#   1]+0.450*[#   5]+0.013*[#   2]+0.013*[#   3]+0.013*[#   4]+
          +0.013*[#   6]+0.013*[#   7]+0.013*[#   8]+
    |psi|^2 = 0.977

 k =   0.0000000000  0.0000000000  0.2000000000
==== e(   1) =    -5.63372 eV ==== 
     psi = 0.453*[#   1]+0.453*[#   5]+0.015*[#   2]+0.015*[#   3]+0.015*[#   4]+
          +0.015*[#   6]+0.015*[#   7]+0.015*[#   8]+
    |psi|^2 = 0.995
==== e(   2) =     5.33389 eV ==== 
     psi = 0.128*[#   2]+0.128*[#   3]+0.128*[#   4]+0.128*[#   6]+0.128*[#   7]+
          +0.128*[#   8]+0.100*[#   1]+0.100*[#   5]+
    |psi|^2 = 0.971
==== e(   3) =     5.66013 eV ==== 
     psi = 0.162*[#   2]+0.162*[#   3]+0.162*[#   4]+0.162*[#   6]+0.162*[#   7]+
          +0.162*[#   8]+
    |psi|^2 = 0.975
==== e(   4) =     5.66013 eV ==== 
     psi = 0.162*[#   2]+0.162*[#   3]+0.162*[#   4]+0.162*[#   6]+0.162*[#   7]+
          +0.162*[#   8]+
    |psi|^2 = 0.975
==== e(   5) =     8.42383 eV ==== 
     psi = 0.146*[#   2]+0.146*[#   3]+0.146*[#   4]+0.146*[#   6]+0.146*[#   7]+
          +0.146*[#   8]+0.043*[#   1]+0.043*[#   5]+
    |psi|^2 = 0.963
==== e(   6) =     9.63007 eV ==== 
     psi = 0.157*[#   2]+0.157*[#   3]+0.157*[#   4]+0.157*[#   6]+0.157*[#   7]+
          +0.157*[#   8]+
    |psi|^2 = 0.944
==== e(   7) =     9.63007 eV ==== 
     psi = 0.157*[#   2]+0.157*[#   3]+0.157*[#   4]+0.157*[#   6]+0.157*[#   7]+
          +0.157*[#   8]+
    |psi|^2 = 0.944
==== e(   8) =    10.51923 eV ==== 
     psi = 0.377*[#   1]+0.377*[#   5]+0.034*[#   2]+0.034*[#   3]+0.034*[#   4]+
          +0.034*[#   6]+0.034*[#   7]+0.034*[#   8]+
    |psi|^2 = 0.957

 k =   0.0000000000  0.0000000000  0.3000000000
==== e(   1) =    -5.41325 eV ==== 
     psi = 0.414*[#   1]+0.414*[#   5]+0.028*[#   2]+0.028*[#   3]+0.028*[#   4]+
          +0.028*[#   6]+0.028*[#   7]+0.028*[#   8]+
    |psi|^2 = 0.995
==== e(   2) =     4.52654 eV ==== 
     psi = 0.148*[#   1]+0.148*[#   5]+0.113*[#   2]+0.113*[#   3]+0.113*[#   4]+
          +0.113*[#   6]+0.113*[#   7]+0.113*[#   8]+
    |psi|^2 = 0.977
==== e(   3) =     5.18587 eV ==== 
     psi = 0.164*[#   2]+0.164*[#   3]+0.164*[#   4]+0.164*[#   6]+0.164*[#   7]+
          +0.164*[#   8]+
    |psi|^2 = 0.981
==== e(   4) =     5.18587 eV ==== 
     psi = 0.164*[#   2]+0.164*[#   3]+0.164*[#   4]+0.164*[#   6]+0.164*[#   7]+
          +0.164*[#   8]+
    |psi|^2 = 0.981
==== e(   5) =     8.05161 eV ==== 
     psi = 0.133*[#   2]+0.133*[#   3]+0.133*[#   4]+0.133*[#   6]+0.133*[#   7]+
          +0.133*[#   8]+0.080*[#   1]+0.080*[#   5]+
    |psi|^2 = 0.959
==== e(   6) =    10.36976 eV ==== 
     psi = 0.154*[#   2]+0.154*[#   3]+0.154*[#   4]+0.154*[#   6]+0.154*[#   7]+
          +0.154*[#   8]+
    |psi|^2 = 0.924
==== e(   7) =    10.36976 eV ==== 
     psi = 0.154*[#   2]+0.154*[#   3]+0.154*[#   4]+0.154*[#   6]+0.154*[#   7]+
          +0.154*[#   8]+
    |psi|^2 = 0.924
==== e(   8) =    10.70616 eV ==== 
     psi = 0.249*[#   1]+0.249*[#   5]+0.043*[#   2]+0.043*[#   3]+0.043*[#   4]+
          +0.043*[#   6]+0.043*[#   7]+0.043*[#   8]+
    |psi|^2 = 0.755

 k =   0.0000000000  0.0000000000  0.4000000000
==== e(   1) =    -5.10635 eV ==== 
     psi = 0.378*[#   1]+0.378*[#   5]+0.040*[#   2]+0.040*[#   3]+0.040*[#   4]+
          +0.040*[#   6]+0.040*[#   7]+0.040*[#   8]+
    |psi|^2 = 0.995
==== e(   2) =     3.65285 eV ==== 
     psi = 0.182*[#   1]+0.182*[#   5]+0.103*[#   2]+0.103*[#   3]+0.103*[#   4]+
          +0.103*[#   6]+0.103*[#   7]+0.103*[#   8]+
    |psi|^2 = 0.982
==== e(   3) =     4.72660 eV ==== 
     psi = 0.164*[#   2]+0.164*[#   3]+0.164*[#   4]+0.164*[#   6]+0.164*[#   7]+
          +0.164*[#   8]+
    |psi|^2 = 0.986
==== e(   4) =     4.72660 eV ==== 
     psi = 0.164*[#   2]+0.164*[#   3]+0.164*[#   4]+0.164*[#   6]+0.164*[#   7]+
          +0.164*[#   8]+
    |psi|^2 = 0.986
==== e(   5) =     7.67236 eV ==== 
     psi = 0.121*[#   2]+0.121*[#   3]+0.121*[#   4]+0.121*[#   6]+0.121*[#   7]+
          +0.121*[#   8]+0.114*[#   1]+0.114*[#   5]+
    |psi|^2 = 0.954
==== e(   6) =    10.13643 eV ==== 
     psi = 0.149*[#   1]+0.149*[#   5]+0.039*[#   2]+0.039*[#   3]+0.039*[#   4]+
          +0.039*[#   6]+0.039*[#   7]+0.039*[#   8]+
    |psi|^2 = 0.531
==== e(   7) =    11.18661 eV ==== 
     psi = 0.150*[#   2]+0.150*[#   3]+0.150*[#   4]+0.150*[#   6]+0.150*[#   7]+
          +0.150*[#   8]+
    |psi|^2 = 0.899
==== e(   8) =    11.18661 eV ==== 
     psi = 0.150*[#   2]+0.150*[#   3]+0.150*[#   4]+0.150*[#   6]+0.150*[#   7]+
          +0.150*[#   8]+
    |psi|^2 = 0.899

 k =   0.0000000000  0.0000000000  0.5000000000
==== e(   1) =    -4.71286 eV ==== 
     psi = 0.348*[#   1]+0.348*[#   5]+0.050*[#   2]+0.050*[#   3]+0.050*[#   4]+
          +0.050*[#   6]+0.050*[#   7]+0.050*[#   8]+
    |psi|^2 = 0.994
==== e(   2) =     2.75637 eV ==== 
     psi = 0.207*[#   1]+0.207*[#   5]+0.095*[#   2]+0.095*[#   3]+0.095*[#   4]+
          +0.095*[#   6]+0.095*[#   7]+0.095*[#   8]+
    |psi|^2 = 0.986
==== e(   3) =     4.31609 eV ==== 
     psi = 0.165*[#   2]+0.165*[#   3]+0.165*[#   4]+0.165*[#   6]+0.165*[#   7]+
          +0.165*[#   8]+
    |psi|^2 = 0.990
==== e(   4) =     4.31609 eV ==== 
     psi = 0.165*[#   2]+0.165*[#   3]+0.165*[#   4]+0.165*[#   6]+0.165*[#   7]+
          +0.165*[#   8]+
    |psi|^2 = 0.990
==== e(   5) =     7.33158 eV ==== 
     psi = 0.141*[#   1]+0.141*[#   5]+0.111*[#   2]+0.111*[#   3]+0.111*[#   4]+
          +0.111*[#   6]+0.111*[#   7]+0.111*[#   8]+
    |psi|^2 = 0.947
==== e(   6) =     9.35468 eV ==== 
     psi = 0.128*[#   1]+0.128*[#   5]+0.041*[#   2]+0.041*[#   3]+0.041*[#   4]+
          +0.041*[#   6]+0.041*[#   7]+0.041*[#   8]+
    |psi|^2 = 0.503
==== e(   7) =    12.05953 eV ==== 
     psi = 0.144*[#   2]+0.144*[#   3]+0.144*[#   4]+0.144*[#   6]+0.144*[#   7]+
          +0.144*[#   8]+
    |psi|^2 = 0.866
==== e(   8) =    12.05953 eV ==== 
     psi = 0.144*[#   2]+0.144*[#   3]+0.144*[#   4]+0.144*[#   6]+0.144*[#   7]+
          +0.144*[#   8]+
    |psi|^2 = 0.866

 k =   0.0000000000  0.0000000000  0.6000000000
==== e(   1) =    -4.23578 eV ==== 
     psi = 0.324*[#   1]+0.324*[#   5]+0.058*[#   2]+0.058*[#   3]+0.058*[#   4]+
          +0.058*[#   6]+0.058*[#   7]+0.058*[#   8]+
    |psi|^2 = 0.994
==== e(   2) =     1.85168 eV ==== 
     psi = 0.226*[#   1]+0.226*[#   5]+0.089*[#   2]+0.089*[#   3]+0.089*[#   4]+
          +0.089*[#   6]+0.089*[#   7]+0.089*[#   8]+
    |psi|^2 = 0.989
==== e(   3) =     3.96936 eV ==== 
     psi = 0.165*[#   2]+0.165*[#   3]+0.165*[#   4]+0.165*[#   6]+0.165*[#   7]+
          +0.165*[#   8]+
    |psi|^2 = 0.992
==== e(   4) =     3.96936 eV ==== 
     psi = 0.165*[#   2]+0.165*[#   3]+0.165*[#   4]+0.165*[#   6]+0.165*[#   7]+
          +0.165*[#   8]+
    |psi|^2 = 0.992
==== e(   5) =     7.05650 eV ==== 
     psi = 0.160*[#   1]+0.160*[#   5]+0.103*[#   2]+0.103*[#   3]+0.103*[#   4]+
          +0.103*[#   6]+0.103*[#   7]+0.103*[#   8]+
    |psi|^2 = 0.937
==== e(   6) =     8.61696 eV ==== 
     psi = 0.133*[#   1]+0.133*[#   5]+0.048*[#   2]+0.048*[#   3]+0.048*[#   4]+
          +0.048*[#   6]+0.048*[#   7]+0.048*[#   8]+
    |psi|^2 = 0.552
==== e(   7) =    12.96178 eV ==== 
     psi = 0.138*[#   2]+0.138*[#   3]+0.138*[#   4]+0.138*[#   6]+0.138*[#   7]+
          +0.138*[#   8]+
    |psi|^2 = 0.825
==== e(   8) =    12.96178 eV ==== 
     psi = 0.138*[#   2]+0.138*[#   3]+0.138*[#   4]+0.138*[#   6]+0.138*[#   7]+
          +0.138*[#   8]+
    |psi|^2 = 0.825

 k =   0.0000000000  0.0000000000  0.7000000000
==== e(   1) =    -3.68012 eV ==== 
     psi = 0.306*[#   1]+0.306*[#   5]+0.063*[#   2]+0.063*[#   3]+0.063*[#   4]+
          +0.063*[#   6]+0.063*[#   7]+0.063*[#   8]+
    |psi|^2 = 0.994
==== e(   2) =     0.95015 eV ==== 
     psi = 0.241*[#   1]+0.241*[#   5]+0.085*[#   2]+0.085*[#   3]+0.085*[#   4]+
          +0.085*[#   6]+0.085*[#   7]+0.085*[#   8]+
    |psi|^2 = 0.991
==== e(   3) =     3.69360 eV ==== 
     psi = 0.166*[#   2]+0.166*[#   3]+0.166*[#   4]+0.166*[#   6]+0.166*[#   7]+
          +0.166*[#   8]+
    |psi|^2 = 0.993
==== e(   4) =     3.69360 eV ==== 
     psi = 0.166*[#   2]+0.166*[#   3]+0.166*[#   4]+0.166*[#   6]+0.166*[#   7]+
          +0.166*[#   8]+
    |psi|^2 = 0.993
==== e(   5) =     6.86544 eV ==== 
     psi = 0.173*[#   1]+0.173*[#   5]+0.096*[#   2]+0.096*[#   3]+0.096*[#   4]+
          +0.096*[#   6]+0.096*[#   7]+0.096*[#   8]+
    |psi|^2 = 0.924
==== e(   6) =     7.99242 eV ==== 
     psi = 0.146*[#   1]+0.146*[#   5]+0.056*[#   2]+0.056*[#   3]+0.056*[#   4]+
          +0.056*[#   6]+0.056*[#   7]+0.056*[#   8]+
    |psi|^2 = 0.628
==== e(   7) =    13.88560 eV ==== 
     psi = 0.130*[#   2]+0.130*[#   3]+0.130*[#   4]+0.130*[#   6]+0.130*[#   7]+
          +0.130*[#   8]+
    |psi|^2 = 0.779
==== e(   8) =    13.88560 eV ==== 
     psi = 0.130*[#   2]+0.130*[#   3]+0.130*[#   4]+0.130*[#   6]+0.130*[#   7]+
          +0.130*[#   8]+
    |psi|^2 = 0.779

 k =   0.0000000000  0.0000000000  0.8000000000
==== e(   1) =    -3.05298 eV ==== 
     psi = 0.293*[#   1]+0.293*[#   5]+0.068*[#   2]+0.068*[#   3]+0.068*[#   4]+
          +0.068*[#   6]+0.068*[#   7]+0.068*[#   8]+
    |psi|^2 = 0.993
==== e(   2) =     0.06829 eV ==== 
     psi = 0.252*[#   1]+0.252*[#   5]+0.081*[#   2]+0.081*[#   3]+0.081*[#   4]+
          +0.081*[#   6]+0.081*[#   7]+0.081*[#   8]+
    |psi|^2 = 0.992
==== e(   3) =     3.49478 eV ==== 
     psi = 0.166*[#   2]+0.166*[#   3]+0.166*[#   4]+0.166*[#   6]+0.166*[#   7]+
          +0.166*[#   8]+
    |psi|^2 = 0.994
==== e(   4) =     3.49478 eV ==== 
     psi = 0.166*[#   2]+0.166*[#   3]+0.166*[#   4]+0.166*[#   6]+0.166*[#   7]+
          +0.166*[#   8]+
    |psi|^2 = 0.994
==== e(   5) =     6.76567 eV ==== 
     psi = 0.180*[#   1]+0.180*[#   5]+0.091*[#   2]+0.091*[#   3]+0.091*[#   4]+
          +0.091*[#   6]+0.091*[#   7]+0.091*[#   8]+
    |psi|^2 = 0.905
==== e(   6) =     7.49426 eV ==== 
     psi = 0.160*[#   1]+0.160*[#   5]+0.065*[#   2]+0.065*[#   3]+0.065*[#   4]+
          +0.065*[#   6]+0.065*[#   7]+0.065*[#   8]+
    |psi|^2 = 0.708
==== e(   7) =    14.82910 eV ==== 
     psi = 0.123*[#   2]+0.123*[#   3]+0.123*[#   4]+0.123*[#   6]+0.123*[#   7]+
          +0.123*[#   8]+
    |psi|^2 = 0.736
==== e(   8) =    14.82910 eV ==== 
     psi = 0.123*[#   2]+0.123*[#   3]+0.123*[#   4]+0.123*[#   6]+0.123*[#   7]+
          +0.123*[#   8]+
    |psi|^2 = 0.736

 k =   0.0000000000  0.0000000000  0.9000000000
==== e(   1) =    -2.35631 eV ==== 
     psi = 0.282*[#   1]+0.282*[#   5]+0.071*[#   2]+0.071*[#   3]+0.071*[#   4]+
          +0.071*[#   6]+0.071*[#   7]+0.071*[#   8]+
    |psi|^2 = 0.993
==== e(   2) =    -0.78668 eV ==== 
     psi = 0.263*[#   1]+0.263*[#   5]+0.078*[#   2]+0.078*[#   3]+0.078*[#   4]+
          +0.078*[#   6]+0.078*[#   7]+0.078*[#   8]+
    |psi|^2 = 0.992
==== e(   3) =     3.37380 eV ==== 
     psi = 0.166*[#   2]+0.166*[#   3]+0.166*[#   4]+0.166*[#   6]+0.166*[#   7]+
          +0.166*[#   8]+
    |psi|^2 = 0.994
==== e(   4) =     3.37380 eV ==== 
     psi = 0.166*[#   2]+0.166*[#   3]+0.166*[#   4]+0.166*[#   6]+0.166*[#   7]+
          +0.166*[#   8]+
    |psi|^2 = 0.994
==== e(   5) =     6.76912 eV ==== 
     psi = 0.181*[#   1]+0.181*[#   5]+0.086*[#   2]+0.086*[#   3]+0.086*[#   4]+
          +0.086*[#   6]+0.086*[#   7]+0.086*[#   8]+
    |psi|^2 = 0.876
==== e(   6) =     7.12853 eV ==== 
     psi = 0.171*[#   1]+0.171*[#   5]+0.073*[#   2]+0.073*[#   3]+0.073*[#   4]+
          +0.073*[#   6]+0.073*[#   7]+0.073*[#   8]+
    |psi|^2 = 0.779
==== e(   7) =    15.76318 eV ==== 
     psi = 0.123*[#   2]+0.123*[#   3]+0.123*[#   4]+0.123*[#   6]+0.123*[#   7]+
          +0.123*[#   8]+
    |psi|^2 = 0.738
==== e(   8) =    15.76318 eV ==== 
     psi = 0.123*[#   2]+0.123*[#   3]+0.123*[#   4]+0.123*[#   6]+0.123*[#   7]+
          +0.123*[#   8]+
    |psi|^2 = 0.738

 k =   0.0000000000  0.0000000000  1.0000000000
==== e(   1) =    -1.59783 eV ==== 
     psi = 0.272*[#   1]+0.272*[#   5]+0.075*[#   2]+0.075*[#   3]+0.075*[#   4]+
          +0.075*[#   6]+0.075*[#   7]+0.075*[#   8]+
    |psi|^2 = 0.993
==== e(   2) =    -1.59783 eV ==== 
     psi = 0.272*[#   1]+0.272*[#   5]+0.075*[#   2]+0.075*[#   3]+0.075*[#   4]+
          +0.075*[#   6]+0.075*[#   7]+0.075*[#   8]+
    |psi|^2 = 0.993
==== e(   3) =     3.33340 eV ==== 
     psi = 0.166*[#   2]+0.166*[#   3]+0.166*[#   4]+0.166*[#   6]+0.166*[#   7]+
          +0.166*[#   8]+
    |psi|^2 = 0.994
==== e(   4) =     3.33340 eV ==== 
     psi = 0.166*[#   2]+0.166*[#   3]+0.166*[#   4]+0.166*[#   6]+0.166*[#   7]+
          +0.166*[#   8]+
    |psi|^2 = 0.994
==== e(   5) =     6.88858 eV ==== 
     psi = 0.178*[#   1]+0.178*[#   5]+0.080*[#   2]+0.080*[#   3]+0.080*[#   4]+
          +0.080*[#   6]+0.080*[#   7]+0.080*[#   8]+
    |psi|^2 = 0.835
==== e(   6) =     6.88858 eV ==== 
     psi = 0.178*[#   1]+0.178*[#   5]+0.080*[#   2]+0.080*[#   3]+0.080*[#   4]+
          +0.080*[#   6]+0.080*[#   7]+0.080*[#   8]+
    |psi|^2 = 0.835
==== e(   7) =    16.40696 eV ==== 
     psi = 0.154*[#   2]+0.154*[#   3]+0.154*[#   4]+0.154*[#   6]+0.154*[#   7]+
          +0.154*[#   8]+
    |psi|^2 = 0.925
==== e(   8) =    16.40696 eV ==== 
     psi = 0.154*[#   2]+0.154*[#   3]+0.154*[#   4]+0.154*[#   6]+0.154*[#   7]+
          +0.154*[#   8]+
    |psi|^2 = 0.925

 k =   0.0000000000  0.0000000000  0.0000000000
==== e(   1) =    -5.80989 eV ==== 
     psi = 0.498*[#   1]+0.498*[#   5]+
    |psi|^2 = 0.995
==== e(   2) =     6.25489 eV ==== 
     psi = 0.160*[#   2]+0.160*[#   3]+0.160*[#   4]+0.160*[#   6]+0.160*[#   7]+
          +0.160*[#   8]+
    |psi|^2 = 0.963
==== e(   3) =     6.25489 eV ==== 
     psi = 0.160*[#   2]+0.160*[#   3]+0.160*[#   4]+0.160*[#   6]+0.160*[#   7]+
          +0.160*[#   8]+
    |psi|^2 = 0.963
==== e(   4) =     6.25489 eV ==== 
     psi = 0.160*[#   2]+0.160*[#   3]+0.160*[#   4]+0.160*[#   6]+0.160*[#   7]+
          +0.160*[#   8]+
    |psi|^2 = 0.963
==== e(   5) =     8.82205 eV ==== 
     psi = 0.161*[#   2]+0.161*[#   3]+0.161*[#   4]+0.161*[#   6]+0.161*[#   7]+
          +0.161*[#   8]+
    |psi|^2 = 0.966
==== e(   6) =     8.82205 eV ==== 
     psi = 0.161*[#   2]+0.161*[#   3]+0.161*[#   4]+0.161*[#   6]+0.161*[#   7]+
          +0.161*[#   8]+
    |psi|^2 = 0.966
==== e(   7) =     8.82205 eV ==== 
     psi = 0.161*[#   2]+0.161*[#   3]+0.161*[#   4]+0.161*[#   6]+0.161*[#   7]+
          +0.161*[#   8]+
    |psi|^2 = 0.966
==== e(   8) =     9.72317 eV ==== 
     psi = 0.489*[#   1]+0.489*[#   5]+
    |psi|^2 = 0.978

 k =   0.0000000000  0.1000000000  0.1000000000
==== e(   1) =    -5.72181 eV ==== 
     psi = 0.474*[#   1]+0.474*[#   5]+0.008*[#   2]+0.008*[#   3]+0.008*[#   4]+
          +0.008*[#   6]+0.008*[#   7]+0.008*[#   8]+
    |psi|^2 = 0.995
==== e(   2) =     5.51805 eV ==== 
     psi = 0.144*[#   2]+0.144*[#   3]+0.144*[#   4]+0.144*[#   6]+0.144*[#   7]+
          +0.144*[#   8]+0.055*[#   1]+0.055*[#   5]+
    |psi|^2 = 0.971
==== e(   3) =     5.89088 eV ==== 
     psi = 0.161*[#   2]+0.161*[#   3]+0.161*[#   4]+0.161*[#   6]+0.161*[#   7]+
          +0.161*[#   8]+0.003*[#   1]+0.003*[#   5]+
    |psi|^2 = 0.971
==== e(   4) =     6.21456 eV ==== 
     psi = 0.161*[#   2]+0.161*[#   3]+0.161*[#   4]+0.161*[#   6]+0.161*[#   7]+
          +0.161*[#   8]+
    |psi|^2 = 0.965
==== e(   5) =     8.91345 eV ==== 
     psi = 0.161*[#   2]+0.161*[#   3]+0.161*[#   4]+0.161*[#   6]+0.161*[#   7]+
          +0.161*[#   8]+
    |psi|^2 = 0.964
==== e(   6) =     8.98563 eV ==== 
     psi = 0.152*[#   2]+0.152*[#   3]+0.152*[#   4]+0.152*[#   6]+0.152*[#   7]+
          +0.152*[#   8]+0.020*[#   1]+0.020*[#   5]+
    |psi|^2 = 0.953
==== e(   7) =     9.08099 eV ==== 
     psi = 0.139*[#   2]+0.139*[#   3]+0.139*[#   4]+0.139*[#   6]+0.139*[#   7]+
          +0.139*[#   8]+0.064*[#   1]+0.064*[#   5]+
    |psi|^2 = 0.961
==== e(   8) =    10.31679 eV ==== 
     psi = 0.369*[#   1]+0.369*[#   5]+0.039*[#   2]+0.039*[#   3]+0.039*[#   4]+
          +0.039*[#   6]+0.039*[#   7]+0.039*[#   8]+
    |psi|^2 = 0.970

 k =   0.0000000000  0.2000000000  0.2000000000
==== e(   1) =    -5.45765 eV ==== 
     psi = 0.423*[#   1]+0.423*[#   5]+0.025*[#   2]+0.025*[#   3]+0.025*[#   4]+
          +0.025*[#   6]+0.025*[#   7]+0.025*[#   8]+
    |psi|^2 = 0.995
==== e(   2) =     4.22376 eV ==== 
     psi = 0.127*[#   2]+0.127*[#   3]+0.127*[#   4]+0.127*[#   6]+0.127*[#   7]+
          +0.127*[#   8]+0.110*[#   1]+0.110*[#   5]+
    |psi|^2 = 0.980
==== e(   3) =     5.05826 eV ==== 
     psi = 0.157*[#   2]+0.157*[#   3]+0.157*[#   4]+0.157*[#   6]+0.157*[#   7]+
          +0.157*[#   8]+0.020*[#   1]+0.020*[#   5]+
    |psi|^2 = 0.981
==== e(   4) =     6.07498 eV ==== 
     psi = 0.162*[#   2]+0.162*[#   3]+0.162*[#   4]+0.162*[#   6]+0.162*[#   7]+
          +0.162*[#   8]+
    |psi|^2 = 0.972
==== e(   5) =     9.18727 eV ==== 
     psi = 0.160*[#   2]+0.160*[#   3]+0.160*[#   4]+0.160*[#   6]+0.160*[#   7]+
          +0.160*[#   8]+
    |psi|^2 = 0.959
==== e(   6) =     9.27870 eV ==== 
     psi = 0.139*[#   1]+0.139*[#   5]+0.113*[#   2]+0.113*[#   3]+0.113*[#   4]+
          +0.113*[#   6]+0.113*[#   7]+0.113*[#   8]+
    |psi|^2 = 0.956
==== e(   7) =     9.36851 eV ==== 
     psi = 0.137*[#   2]+0.137*[#   3]+0.137*[#   4]+0.137*[#   6]+0.137*[#   7]+
          +0.137*[#   8]+0.051*[#   1]+0.051*[#   5]+
    |psi|^2 = 0.922
==== e(   8) =    11.49913 eV ==== 
     psi = 0.224*[#   1]+0.224*[#   5]+0.075*[#   2]+0.075*[#   3]+0.075*[#   4]+
          +0.075*[#   6]+0.075*[#   7]+0.075*[#   8]+
    |psi|^2 = 0.899

 k =   0.0000000000  0.3000000000  0.3000000000
==== e(   1) =    -5.02436 eV ==== 
     psi = 0.376*[#   1]+0.376*[#   5]+0.040*[#   2]+0.040*[#   3]+0.040*[#   4]+
          +0.040*[#   6]+0.040*[#   7]+0.040*[#   8]+
    |psi|^2 = 0.995
==== e(   2) =     2.93304 eV ==== 
     psi = 0.148*[#   1]+0.148*[#   5]+0.115*[#   2]+0.115*[#   3]+0.115*[#   4]+
          +0.115*[#   6]+0.115*[#   7]+0.115*[#   8]+
    |psi|^2 = 0.986
==== e(   3) =     4.09225 eV ==== 
     psi = 0.152*[#   2]+0.152*[#   3]+0.152*[#   4]+0.152*[#   6]+0.152*[#   7]+
          +0.152*[#   8]+0.039*[#   1]+0.039*[#   5]+
    |psi|^2 = 0.987
==== e(   4) =     5.80158 eV ==== 
     psi = 0.163*[#   2]+0.163*[#   3]+0.163*[#   4]+0.163*[#   6]+0.163*[#   7]+
          +0.163*[#   8]+
    |psi|^2 = 0.980
==== e(   5) =     9.35615 eV ==== 
     psi = 0.143*[#   1]+0.143*[#   5]+0.108*[#   2]+0.108*[#   3]+0.108*[#   4]+
          +0.108*[#   6]+0.108*[#   7]+0.108*[#   8]+
    |psi|^2 = 0.934
==== e(   6) =     9.64161 eV ==== 
     psi = 0.158*[#   2]+0.158*[#   3]+0.158*[#   4]+0.158*[#   6]+0.158*[#   7]+
          +0.158*[#   8]+
    |psi|^2 = 0.948
==== e(   7) =     9.89651 eV ==== 
     psi = 0.122*[#   2]+0.122*[#   3]+0.122*[#   4]+0.122*[#   6]+0.122*[#   7]+
          +0.122*[#   8]+0.072*[#   1]+0.072*[#   5]+
    |psi|^2 = 0.875
==== e(   8) =    11.91655 eV ==== 
     psi = 0.146*[#   1]+0.146*[#   5]+0.062*[#   2]+0.062*[#   3]+0.062*[#   4]+
          +0.062*[#   6]+0.062*[#   7]+0.062*[#   8]+
    |psi|^2 = 0.666

 k =   0.0000000000  0.4000000000  0.4000000000
==== e(   1) =    -4.43817 eV ==== 
     psi = 0.345*[#   1]+0.345*[#   5]+0.051*[#   2]+0.051*[#   3]+0.051*[#   4]+
          +0.051*[#   6]+0.051*[#   7]+0.051*[#   8]+
    |psi|^2 = 0.994
==== e(   2) =     1.76602 eV ==== 
     psi = 0.177*[#   1]+0.177*[#   5]+0.106*[#   2]+0.106*[#   3]+0.106*[#   4]+
          +0.106*[#   6]+0.106*[#   7]+0.106*[#   8]+
    |psi|^2 = 0.990
==== e(   3) =     3.17121 eV ==== 
     psi = 0.150*[#   2]+0.150*[#   3]+0.150*[#   4]+0.150*[#   6]+0.150*[#   7]+
          +0.150*[#   8]+0.046*[#   1]+0.046*[#   5]+
    |psi|^2 = 0.990
==== e(   4) =     5.39166 eV ==== 
     psi = 0.164*[#   2]+0.164*[#   3]+0.164*[#   4]+0.164*[#   6]+0.164*[#   7]+
          +0.164*[#   8]+
    |psi|^2 = 0.985
==== e(   5) =     9.16778 eV ==== 
     psi = 0.117*[#   1]+0.117*[#   5]+0.107*[#   2]+0.107*[#   3]+0.107*[#   4]+
          +0.107*[#   6]+0.107*[#   7]+0.107*[#   8]+
    |psi|^2 = 0.880
==== e(   6) =    10.27129 eV ==== 
     psi = 0.155*[#   2]+0.155*[#   3]+0.155*[#   4]+0.155*[#   6]+0.155*[#   7]+
          +0.155*[#   8]+
    |psi|^2 = 0.932
==== e(   7) =    10.57148 eV ==== 
     psi = 0.104*[#   2]+0.104*[#   3]+0.104*[#   4]+0.104*[#   6]+0.104*[#   7]+
          +0.104*[#   8]+0.083*[#   1]+0.083*[#   5]+
    |psi|^2 = 0.790
==== e(   8) =    11.99749 eV ==== 
     psi = 0.149*[#   1]+0.149*[#   5]+0.057*[#   2]+0.057*[#   3]+0.057*[#   4]+
          +0.057*[#   6]+0.057*[#   7]+0.057*[#   8]+
    |psi|^2 = 0.643

 k =   0.0000000000  0.5000000000  0.5000000000
==== e(   1) =    -3.72767 eV ==== 
     psi = 0.328*[#   1]+0.328*[#   5]+0.056*[#   2]+0.056*[#   3]+0.056*[#   4]+
          +0.056*[#   6]+0.056*[#   7]+0.056*[#   8]+
    |psi|^2 = 0.994
==== e(   2) =     0.75397 eV ==== 
     psi = 0.200*[#   1]+0.200*[#   5]+0.099*[#   2]+0.099*[#   3]+0.099*[#   4]+
          +0.099*[#   6]+0.099*[#   7]+0.099*[#   8]+
    |psi|^2 = 0.992
==== e(   3) =     2.39873 eV ==== 
     psi = 0.152*[#   2]+0.152*[#   3]+0.152*[#   4]+0.152*[#   6]+0.152*[#   7]+
          +0.152*[#   8]+0.039*[#   1]+0.039*[#   5]+
    |psi|^2 = 0.992
==== e(   4) =     4.89637 eV ==== 
     psi = 0.165*[#   2]+0.165*[#   3]+0.165*[#   4]+0.165*[#   6]+0.165*[#   7]+
          +0.165*[#   8]+
    |psi|^2 = 0.988
==== e(   5) =     8.69308 eV ==== 
     psi = 0.105*[#   2]+0.105*[#   3]+0.105*[#   4]+0.105*[#   6]+0.105*[#   7]+
          +0.105*[#   8]+0.102*[#   1]+0.102*[#   5]+
    |psi|^2 = 0.837
==== e(   6) =    11.07535 eV ==== 
     psi = 0.151*[#   2]+0.151*[#   3]+0.151*[#   4]+0.151*[#   6]+0.151*[#   7]+
          +0.151*[#   8]+
    |psi|^2 = 0.909
==== e(   7) =    11.39195 eV ==== 
     psi = 0.080*[#   1]+0.080*[#   5]+0.079*[#   2]+0.079*[#   3]+0.079*[#   4]+
          +0.079*[#   6]+0.079*[#   7]+0.079*[#   8]+
    |psi|^2 = 0.632
==== e(   8) =    12.40832 eV ==== 
     psi = 0.158*[#   1]+0.158*[#   5]+0.064*[#   2]+0.064*[#   3]+0.064*[#   4]+
          +0.064*[#   6]+0.064*[#   7]+0.064*[#   8]+
    |psi|^2 = 0.703

 k =   0.0000000000  0.6000000000  0.6000000000
==== e(   1) =    -2.95841 eV ==== 
     psi = 0.323*[#   1]+0.323*[#   5]+0.058*[#   2]+0.058*[#   3]+0.058*[#   4]+
          +0.058*[#   6]+0.058*[#   7]+0.058*[#   8]+
    |psi|^2 = 0.995
==== e(   2) =    -0.08443 eV ==== 
     psi = 0.221*[#   1]+0.221*[#   5]+0.092*[#   2]+0.092*[#   3]+0.092*[#   4]+
          +0.092*[#   6]+0.092*[#   7]+0.092*[#   8]+
    |psi|^2 = 0.993
==== e(   3) =     1.86837 eV ==== 
     psi = 0.158*[#   2]+0.158*[#   3]+0.158*[#   4]+0.158*[#   6]+0.158*[#   7]+
          +0.158*[#   8]+0.021*[#   1]+0.021*[#   5]+
    |psi|^2 = 0.993
==== e(   4) =     4.39570 eV ==== 
     psi = 0.165*[#   2]+0.165*[#   3]+0.165*[#   4]+0.165*[#   6]+0.165*[#   7]+
          +0.165*[#   8]+
    |psi|^2 = 0.991
==== e(   5) =     8.12616 eV ==== 
     psi = 0.109*[#   1]+0.109*[#   5]+0.102*[#   2]+0.102*[#   3]+0.102*[#   4]+
          +0.102*[#   6]+0.102*[#   7]+0.102*[#   8]+
    |psi|^2 = 0.827
==== e(   6) =    12.04665 eV ==== 
     psi = 0.146*[#   2]+0.146*[#   3]+0.146*[#   4]+0.146*[#   6]+0.146*[#   7]+
          +0.146*[#   8]+
    |psi|^2 = 0.878
==== e(   7) =    12.30467 eV ==== 
     psi = 0.039*[#   1]+0.039*[#   5]+0.032*[#   2]+0.032*[#   3]+0.032*[#   4]+
          +0.032*[#   6]+0.032*[#   7]+0.032*[#   8]+
    |psi|^2 = 0.268
==== e(   8) =    13.12049 eV ==== 
     psi = 0.144*[#   1]+0.144*[#   5]+0.076*[#   2]+0.076*[#   3]+0.076*[#   4]+
          +0.076*[#   6]+0.076*[#   7]+0.076*[#   8]+
    |psi|^2 = 0.746

 k =   0.0000000000  0.7000000000  0.7000000000
==== e(   1) =    -2.26355 eV ==== 
     psi = 0.322*[#   1]+0.322*[#   5]+0.059*[#   2]+0.059*[#   3]+0.059*[#   4]+
          +0.059*[#   6]+0.059*[#   7]+0.059*[#   8]+
    |psi|^2 = 0.995
==== e(   2) =    -0.74585 eV ==== 
     psi = 0.239*[#   1]+0.239*[#   5]+0.086*[#   2]+0.086*[#   3]+0.086*[#   4]+
          +0.086*[#   6]+0.086*[#   7]+0.086*[#   8]+
    |psi|^2 = 0.993
==== e(   3) =     1.71184 eV ==== 
     psi = 0.164*[#   2]+0.164*[#   3]+0.164*[#   4]+0.164*[#   6]+0.164*[#   7]+
          +0.164*[#   8]+0.003*[#   1]+0.003*[#   5]+
    |psi|^2 = 0.993
==== e(   4) =     3.95444 eV ==== 
     psi = 0.165*[#   2]+0.165*[#   3]+0.165*[#   4]+0.165*[#   6]+0.165*[#   7]+
          +0.165*[#   8]+
    |psi|^2 = 0.993
==== e(   5) =     7.60984 eV ==== 
     psi = 0.128*[#   1]+0.128*[#   5]+0.096*[#   2]+0.096*[#   3]+0.096*[#   4]+
          +0.096*[#   6]+0.096*[#   7]+0.096*[#   8]+
    |psi|^2 = 0.829
==== e(   6) =    11.39200 eV ==== 
     psi = 0.064*[#   1]+0.064*[#   5]+0.043*[#   2]+0.043*[#   3]+0.043*[#   4]+
          +0.043*[#   6]+0.043*[#   7]+0.043*[#   8]+
    |psi|^2 = 0.385
==== e(   7) =    13.16747 eV ==== 
     psi = 0.140*[#   2]+0.140*[#   3]+0.140*[#   4]+0.140*[#   6]+0.140*[#   7]+
          +0.140*[#   8]+
    |psi|^2 = 0.840
==== e(   8) =    13.69667 eV ==== 
     psi = 0.085*[#   1]+0.085*[#   5]+0.055*[#   2]+0.055*[#   3]+0.055*[#   4]+
          +0.055*[#   6]+0.055*[#   7]+0.055*[#   8]+
    |psi|^2 = 0.499

 k =   0.0000000000  0.8000000000  0.8000000000
==== e(   1) =    -1.81180 eV ==== 
     psi = 0.306*[#   1]+0.306*[#   5]+0.064*[#   2]+0.064*[#   3]+0.064*[#   4]+
          +0.064*[#   6]+0.064*[#   7]+0.064*[#   8]+
    |psi|^2 = 0.994
==== e(   2) =    -1.21825 eV ==== 
     psi = 0.256*[#   1]+0.256*[#   5]+0.080*[#   2]+0.080*[#   3]+0.080*[#   4]+
          +0.080*[#   6]+0.080*[#   7]+0.080*[#   8]+
    |psi|^2 = 0.993
==== e(   3) =     2.07007 eV ==== 
     psi = 0.165*[#   2]+0.165*[#   3]+0.165*[#   4]+0.165*[#   6]+0.165*[#   7]+
          +0.165*[#   8]+0.002*[#   1]+0.002*[#   5]+
    |psi|^2 = 0.994
==== e(   4) =     3.61647 eV ==== 
     psi = 0.166*[#   2]+0.166*[#   3]+0.166*[#   4]+0.166*[#   6]+0.166*[#   7]+
          +0.166*[#   8]+
    |psi|^2 = 0.994
==== e(   5) =     7.21653 eV ==== 
     psi = 0.151*[#   1]+0.151*[#   5]+0.088*[#   2]+0.088*[#   3]+0.088*[#   4]+
          +0.088*[#   6]+0.088*[#   7]+0.088*[#   8]+
    |psi|^2 = 0.833
==== e(   6) =     9.38142 eV ==== 
     psi = 0.118*[#   1]+0.118*[#   5]+0.072*[#   2]+0.072*[#   3]+0.072*[#   4]+
          +0.072*[#   6]+0.072*[#   7]+0.072*[#   8]+
    |psi|^2 = 0.667
==== e(   7) =    14.41482 eV ==== 
     psi = 0.135*[#   2]+0.135*[#   3]+0.135*[#   4]+0.135*[#   6]+0.135*[#   7]+
          +0.135*[#   8]+
    |psi|^2 = 0.810
==== e(   8) =    14.96861 eV ==== 
     psi = 0.043*[#   1]+0.043*[#   5]+0.022*[#   2]+0.022*[#   3]+0.022*[#   4]+
          +0.022*[#   6]+0.022*[#   7]+0.022*[#   8]+
    |psi|^2 = 0.216

 k =   0.0000000000  0.9000000000  0.9000000000
==== e(   1) =    -1.63507 eV ==== 
     psi = 0.283*[#   1]+0.283*[#   5]+0.071*[#   2]+0.071*[#   3]+0.071*[#   4]+
          +0.071*[#   6]+0.071*[#   7]+0.071*[#   8]+
    |psi|^2 = 0.993
==== e(   2) =    -1.50298 eV ==== 
     psi = 0.268*[#   1]+0.268*[#   5]+0.076*[#   2]+0.076*[#   3]+0.076*[#   4]+
          +0.076*[#   6]+0.076*[#   7]+0.076*[#   8]+
    |psi|^2 = 0.993
==== e(   3) =     2.83020 eV ==== 
     psi = 0.163*[#   2]+0.163*[#   3]+0.163*[#   4]+0.163*[#   6]+0.163*[#   7]+
          +0.163*[#   8]+0.008*[#   1]+0.008*[#   5]+
    |psi|^2 = 0.993
==== e(   4) =     3.40517 eV ==== 
     psi = 0.166*[#   2]+0.166*[#   3]+0.166*[#   4]+0.166*[#   6]+0.166*[#   7]+
          +0.166*[#   8]+
    |psi|^2 = 0.994
==== e(   5) =     6.97105 eV ==== 
     psi = 0.171*[#   1]+0.171*[#   5]+0.082*[#   2]+0.082*[#   3]+0.082*[#   4]+
          +0.082*[#   6]+0.082*[#   7]+0.082*[#   8]+
    |psi|^2 = 0.835
==== e(   6) =     7.68400 eV ==== 
     psi = 0.155*[#   1]+0.155*[#   5]+0.081*[#   2]+0.081*[#   3]+0.081*[#   4]+
          +0.081*[#   6]+0.081*[#   7]+0.081*[#   8]+
    |psi|^2 = 0.797
==== e(   7) =    15.66969 eV ==== 
     psi = 0.138*[#   2]+0.138*[#   3]+0.138*[#   4]+0.138*[#   6]+0.138*[#   7]+
          +0.138*[#   8]+
    |psi|^2 = 0.826
==== e(   8) =    15.94292 eV ==== 
     psi = 0.135*[#   2]+0.135*[#   3]+0.135*[#   4]+0.135*[#   6]+0.135*[#   7]+
          +0.135*[#   8]+0.026*[#   1]+0.026*[#   5]+
    |psi|^2 = 0.861

 k =   0.0000000000  1.0000000000  1.0000000000
==== e(   1) =    -1.59783 eV ==== 
     psi = 0.272*[#   1]+0.272*[#   5]+0.075*[#   2]+0.075*[#   3]+0.075*[#   4]+
          +0.075*[#   6]+0.075*[#   7]+0.075*[#   8]+
    |psi|^2 = 0.993
==== e(   2) =    -1.59783 eV ==== 
     psi = 0.272*[#   1]+0.272*[#   5]+0.075*[#   2]+0.075*[#   3]+0.075*[#   4]+
          +0.075*[#   6]+0.075*[#   7]+0.075*[#   8]+
    |psi|^2 = 0.993
==== e(   3) =     3.33340 eV ==== 
     psi = 0.166*[#   2]+0.166*[#   3]+0.166*[#   4]+0.166*[#   6]+0.166*[#   7]+
          +0.166*[#   8]+
    |psi|^2 = 0.994
==== e(   4) =     3.33340 eV ==== 
     psi = 0.166*[#   2]+0.166*[#   3]+0.166*[#   4]+0.166*[#   6]+0.166*[#   7]+
          +0.166*[#   8]+
    |psi|^2 = 0.994
==== e(   5) =     6.88858 eV ==== 
     psi = 0.178*[#   1]+0.178*[#   5]+0.080*[#   2]+0.080*[#   3]+0.080*[#   4]+
          +0.080*[#   6]+0.080*[#   7]+0.080*[#   8]+
    |psi|^2 = 0.835
==== e(   6) =     6.88858 eV ==== 
     psi = 0.178*[#   1]+0.178*[#   5]+0.080*[#   2]+0.080*[#   3]+0.080*[#   4]+
          +0.080*[#   6]+0.080*[#   7]+0.080*[#   8]+
    |psi|^2 = 0.835
==== e(   7) =    16.40696 eV ==== 
     psi = 0.154*[#   2]+0.154*[#   3]+0.154*[#   4]+0.154*[#   6]+0.154*[#   7]+
          +0.154*[#   8]+
    |psi|^2 = 0.925
==== e(   8) =    16.40696 eV ==== 
     psi = 0.154*[#   2]+0.154*[#   3]+0.154*[#   4]+0.154*[#   6]+0.154*[#   7]+
          +0.154*[#   8]+
    |psi|^2 = 0.925

 k =   0.0000000000  0.0000000000  0.0000000000
==== e(   1) =    -5.80989 eV ==== 
     psi = 0.498*[#   1]+0.498*[#   5]+
    |psi|^2 = 0.995
==== e(   2) =     6.25489 eV ==== 
     psi = 0.160*[#   2]+0.160*[#   3]+0.160*[#   4]+0.160*[#   6]+0.160*[#   7]+
          +0.160*[#   8]+
    |psi|^2 = 0.963
==== e(   3) =     6.25489 eV ==== 
     psi = 0.160*[#   2]+0.160*[#   3]+0.160*[#   4]+0.160*[#   6]+0.160*[#   7]+
          +0.160*[#   8]+
    |psi|^2 = 0.963
==== e(   4) =     6.25489 eV ==== 
     psi = 0.160*[#   2]+0.160*[#   3]+0.160*[#   4]+0.160*[#   6]+0.160*[#   7]+
          +0.160*[#   8]+
    |psi|^2 = 0.963
==== e(   5) =     8.82205 eV ==== 
     psi = 0.161*[#   2]+0.161*[#   3]+0.161*[#   4]+0.161*[#   6]+0.161*[#   7]+
          +0.161*[#   8]+
    |psi|^2 = 0.966
==== e(   6) =     8.82205 eV ==== 
     psi = 0.161*[#   2]+0.161*[#   3]+0.161*[#   4]+0.161*[#   6]+0.161*[#   7]+
          +0.161*[#   8]+
    |psi|^2 = 0.966
==== e(   7) =     8.82205 eV ==== 
     psi = 0.161*[#   2]+0.161*[#   3]+0.161*[#   4]+0.161*[#   6]+0.161*[#   7]+
          +0.161*[#   8]+
    |psi|^2 = 0.966
==== e(   8) =     9.72317 eV ==== 
     psi = 0.489*[#   1]+0.489*[#   5]+
    |psi|^2 = 0.978

 k =   0.1000000000  0.1000000000  0.1000000000
==== e(   1) =    -5.67829 eV ==== 
     psi = 0.463*[#   1]+0.463*[#   5]+0.011*[#   2]+0.011*[#   3]+0.011*[#   4]+
          +0.011*[#   6]+0.011*[#   7]+0.011*[#   8]+
    |psi|^2 = 0.995
==== e(   2) =     5.10376 eV ==== 
     psi = 0.140*[#   2]+0.140*[#   3]+0.140*[#   4]+0.140*[#   6]+0.140*[#   7]+
          +0.140*[#   8]+0.067*[#   1]+0.067*[#   5]+
    |psi|^2 = 0.975
==== e(   3) =     6.04960 eV ==== 
     psi = 0.161*[#   2]+0.161*[#   3]+0.161*[#   4]+0.161*[#   6]+0.161*[#   7]+
          +0.161*[#   8]+
    |psi|^2 = 0.969
==== e(   4) =     6.04960 eV ==== 
     psi = 0.161*[#   2]+0.161*[#   3]+0.161*[#   4]+0.161*[#   6]+0.161*[#   7]+
          +0.161*[#   8]+
    |psi|^2 = 0.969
==== e(   5) =     8.84762 eV ==== 
     psi = 0.120*[#   1]+0.120*[#   2]+0.120*[#   3]+0.120*[#   4]+0.120*[#   5]+
          +0.120*[#   6]+0.120*[#   7]+0.120*[#   8]+
    |psi|^2 = 0.957
==== e(   6) =     9.12047 eV ==== 
     psi = 0.160*[#   2]+0.160*[#   3]+0.160*[#   4]+0.160*[#   6]+0.160*[#   7]+
          +0.160*[#   8]+
    |psi|^2 = 0.958
==== e(   7) =     9.12047 eV ==== 
     psi = 0.160*[#   2]+0.160*[#   3]+0.160*[#   4]+0.160*[#   6]+0.160*[#   7]+
          +0.160*[#   8]+
    |psi|^2 = 0.958
==== e(   8) =    10.61160 eV ==== 
     psi = 0.335*[#   1]+0.335*[#   5]+0.049*[#   2]+0.049*[#   3]+0.049*[#   4]+
          +0.049*[#   6]+0.049*[#   7]+0.049*[#   8]+
    |psi|^2 = 0.965

 k =   0.2000000000  0.2000000000  0.2000000000
==== e(   1) =    -5.28483 eV ==== 
     psi = 0.402*[#   1]+0.402*[#   5]+0.032*[#   2]+0.032*[#   3]+0.032*[#   4]+
          +0.032*[#   6]+0.032*[#   7]+0.032*[#   8]+
    |psi|^2 = 0.995
==== e(   2) =     3.22191 eV ==== 
     psi = 0.124*[#   2]+0.124*[#   3]+0.124*[#   4]+0.124*[#   6]+0.124*[#   7]+
          +0.124*[#   8]+0.121*[#   1]+0.121*[#   5]+
    |psi|^2 = 0.984
==== e(   3) =     5.65990 eV ==== 
     psi = 0.163*[#   2]+0.163*[#   3]+0.163*[#   4]+0.163*[#   6]+0.163*[#   7]+
          +0.163*[#   8]+
    |psi|^2 = 0.977
==== e(   4) =     5.65990 eV ==== 
     psi = 0.163*[#   2]+0.163*[#   3]+0.163*[#   4]+0.163*[#   6]+0.163*[#   7]+
          +0.163*[#   8]+
    |psi|^2 = 0.977
==== e(   5) =     8.50378 eV ==== 
     psi = 0.231*[#   1]+0.231*[#   5]+0.081*[#   2]+0.081*[#   3]+0.081*[#   4]+
          +0.081*[#   6]+0.081*[#   7]+0.081*[#   8]+
    |psi|^2 = 0.946
==== e(   6) =     9.63593 eV ==== 
     psi = 0.154*[#   2]+0.154*[#   3]+0.154*[#   4]+0.154*[#   6]+0.154*[#   7]+
          +0.154*[#   8]+
    |psi|^2 = 0.926
==== e(   7) =     9.63593 eV ==== 
     psi = 0.154*[#   2]+0.154*[#   3]+0.154*[#   4]+0.154*[#   6]+0.154*[#   7]+
          +0.154*[#   8]+
    |psi|^2 = 0.926
==== e(   8) =    12.33324 eV ==== 
     psi = 0.221*[#   1]+0.221*[#   5]+0.080*[#   2]+0.080*[#   3]+0.080*[#   4]+
          +0.080*[#   6]+0.080*[#   7]+0.080*[#   8]+
    |psi|^2 = 0.920

 k =   0.3000000000  0.3000000000  0.3000000000
==== e(   1) =    -4.65923 eV ==== 
     psi = 0.362*[#   1]+0.362*[#   5]+0.045*[#   2]+0.045*[#   3]+0.045*[#   4]+
          +0.045*[#   6]+0.045*[#   7]+0.045*[#   8]+
    |psi|^2 = 0.995
==== e(   2) =     1.40426 eV ==== 
     psi = 0.144*[#   1]+0.144*[#   5]+0.117*[#   2]+0.117*[#   3]+0.117*[#   4]+
          +0.117*[#   6]+0.117*[#   7]+0.117*[#   8]+
    |psi|^2 = 0.988
==== e(   3) =     5.31880 eV ==== 
     psi = 0.164*[#   2]+0.164*[#   3]+0.164*[#   4]+0.164*[#   6]+0.164*[#   7]+
          +0.164*[#   8]+
    |psi|^2 = 0.983
==== e(   4) =     5.31880 eV ==== 
     psi = 0.164*[#   2]+0.164*[#   3]+0.164*[#   4]+0.164*[#   6]+0.164*[#   7]+
          +0.164*[#   8]+
    |psi|^2 = 0.983
==== e(   5) =     8.13849 eV ==== 
     psi = 0.295*[#   1]+0.295*[#   5]+0.057*[#   2]+0.057*[#   3]+0.057*[#   4]+
          +0.057*[#   6]+0.057*[#   7]+0.057*[#   8]+
    |psi|^2 = 0.933
==== e(   6) =     9.80320 eV ==== 
     psi = 0.140*[#   2]+0.140*[#   3]+0.140*[#   4]+0.140*[#   6]+0.140*[#   7]+
          +0.140*[#   8]+
    |psi|^2 = 0.842
==== e(   7) =     9.80320 eV ==== 
     psi = 0.140*[#   2]+0.140*[#   3]+0.140*[#   4]+0.140*[#   6]+0.140*[#   7]+
          +0.140*[#   8]+
    |psi|^2 = 0.842
==== e(   8) =    13.84470 eV ==== 
     psi = 0.123*[#   1]+0.123*[#   5]+0.077*[#   2]+0.077*[#   3]+0.077*[#   4]+
          +0.077*[#   6]+0.077*[#   7]+0.077*[#   8]+
    |psi|^2 = 0.709

 k =   0.4000000000  0.4000000000  0.4000000000
==== e(   1) =    -3.89098 eV ==== 
     psi = 0.358*[#   1]+0.358*[#   5]+0.046*[#   2]+0.046*[#   3]+0.046*[#   4]+
          +0.046*[#   6]+0.046*[#   7]+0.046*[#   8]+
    |psi|^2 = 0.995
==== e(   2) =    -0.10176 eV ==== 
     psi = 0.137*[#   1]+0.137*[#   5]+0.119*[#   2]+0.119*[#   3]+0.119*[#   4]+
          +0.119*[#   6]+0.119*[#   7]+0.119*[#   8]+
    |psi|^2 = 0.988
==== e(   3) =     5.10243 eV ==== 
     psi = 0.164*[#   2]+0.164*[#   3]+0.164*[#   4]+0.164*[#   6]+0.164*[#   7]+
          +0.164*[#   8]+
    |psi|^2 = 0.987
==== e(   4) =     5.10243 eV ==== 
     psi = 0.164*[#   2]+0.164*[#   3]+0.164*[#   4]+0.164*[#   6]+0.164*[#   7]+
          +0.164*[#   8]+
    |psi|^2 = 0.987
==== e(   5) =     7.90028 eV ==== 
     psi = 0.333*[#   1]+0.333*[#   5]+0.042*[#   2]+0.042*[#   3]+0.042*[#   4]+
          +0.042*[#   6]+0.042*[#   7]+0.042*[#   8]+
    |psi|^2 = 0.921
==== e(   6) =     9.67884 eV ==== 
     psi = 0.131*[#   2]+0.131*[#   3]+0.131*[#   4]+0.131*[#   6]+0.131*[#   7]+
          +0.131*[#   8]+
    |psi|^2 = 0.784
==== e(   7) =     9.67884 eV ==== 
     psi = 0.131*[#   2]+0.131*[#   3]+0.131*[#   4]+0.131*[#   6]+0.131*[#   7]+
          +0.131*[#   8]+
    |psi|^2 = 0.784
==== e(   8) =    13.95935 eV ==== 
     psi = 0.029*[#   2]+0.029*[#   3]+0.029*[#   4]+0.029*[#   6]+0.029*[#   7]+
          +0.029*[#   8]+0.027*[#   1]+0.027*[#   5]+
    |psi|^2 = 0.228

 k =   0.5000000000  0.5000000000  0.5000000000
==== e(   1) =    -3.41796 eV ==== 
     psi = 0.382*[#   1]+0.382*[#   5]+0.039*[#   2]+0.039*[#   3]+0.039*[#   4]+
          +0.039*[#   6]+0.039*[#   7]+0.039*[#   8]+
    |psi|^2 = 0.996
==== e(   2) =    -0.82199 eV ==== 
     psi = 0.128*[#   2]+0.128*[#   3]+0.128*[#   4]+0.128*[#   6]+0.128*[#   7]+
          +0.128*[#   8]+0.111*[#   1]+0.111*[#   5]+
    |psi|^2 = 0.987
==== e(   3) =     5.02893 eV ==== 
     psi = 0.165*[#   2]+0.165*[#   3]+0.165*[#   4]+0.165*[#   6]+0.165*[#   7]+
          +0.165*[#   8]+
    |psi|^2 = 0.988
==== e(   4) =     5.02893 eV ==== 
     psi = 0.165*[#   2]+0.165*[#   3]+0.165*[#   4]+0.165*[#   6]+0.165*[#   7]+
          +0.165*[#   8]+
    |psi|^2 = 0.988
==== e(   5) =     7.81388 eV ==== 
     psi = 0.346*[#   1]+0.346*[#   5]+0.037*[#   2]+0.037*[#   3]+0.037*[#   4]+
          +0.037*[#   6]+0.037*[#   7]+0.037*[#   8]+
    |psi|^2 = 0.916
==== e(   6) =     9.59676 eV ==== 
     psi = 0.129*[#   2]+0.129*[#   3]+0.129*[#   4]+0.129*[#   6]+0.129*[#   7]+
          +0.129*[#   8]+
    |psi|^2 = 0.771
==== e(   7) =     9.59676 eV ==== 
     psi = 0.129*[#   2]+0.129*[#   3]+0.129*[#   4]+0.129*[#   6]+0.129*[#   7]+
          +0.129*[#   8]+
    |psi|^2 = 0.771
==== e(   8) =    13.83775 eV ==== 
     psi = 0.023*[#   2]+0.023*[#   3]+0.023*[#   4]+0.023*[#   6]+0.023*[#   7]+
          +0.023*[#   8]+0.020*[#   1]+0.020*[#   5]+
    |psi|^2 = 0.175

Lowdin Charges: 

     Atom #   1: total charge =   3.9441, s =  1.0790, p =  2.8651, 
     Atom #   2: total charge =   3.9441, s =  1.0790, p =  2.8651, 
     Spilling Parameter:   0.0140
