
     Program PROJWFC v.5.1.1 starts on 16Mar2015 at 14: 3:33 

     This program is part of the open-source Quantum ESPRESSO suite
     for quantum simulation of materials; please cite
         "P. Giannozzi et al., J. Phys.:Condens. Matter 21 395502 (2009);
          URL http://www.quantum-espresso.org", 
     in publications or presentations arising from this work. More details at
     http://www.quantum-espresso.org/quote

     Parallel version (MPI), running on    16 processors
     R & G space division:  proc/nbgrp/npool/nimage =      16

   Info: using nr1, nr2, nr3 values from input

   Info: using nr1s, nr2s, nr3s values from input

     IMPORTANT: XC functional enforced from input :
     Exchange-correlation      = PBESOL ( 1  4 10  8 0 0)
     Any further DFT definition will be discarded
     Please, verify this is what you really want

               file Mo.rel-pbesol-spn-rrkjus_psl.0.3.0.UPF: wavefunction(s)  4S renormalized
 
     Parallelization info
     --------------------
     sticks:   dense  smooth     PW     G-vecs:    dense   smooth      PW
     Min         150      39     12                38434     5087     910
     Max         151      40     13                38475     5126     935
     Sum        2407     637    199               615267    81721   14731
 

     negative rho (up, down):  7.287E-05 0.000E+00

     Gaussian broadening (read from file): ngauss,degauss=   0    0.001000


     Calling projwave_nc .... 

     Atomic states used for projection
     (read from pseudopotential files):

     state #  1: atom   1 (Mo ), wfc  1 (j=0.5 l=0 m_j=-0.5)
     state #  2: atom   1 (Mo ), wfc  1 (j=0.5 l=0 m_j= 0.5)
     state #  3: atom   1 (Mo ), wfc  2 (j=0.5 l=0 m_j=-0.5)
     state #  4: atom   1 (Mo ), wfc  2 (j=0.5 l=0 m_j= 0.5)
     state #  5: atom   1 (Mo ), wfc  3 (j=0.5 l=1 m_j=-0.5)
     state #  6: atom   1 (Mo ), wfc  3 (j=0.5 l=1 m_j= 0.5)
     state #  7: atom   1 (Mo ), wfc  4 (j=1.5 l=1 m_j=-1.5)
     state #  8: atom   1 (Mo ), wfc  4 (j=1.5 l=1 m_j=-0.5)
     state #  9: atom   1 (Mo ), wfc  4 (j=1.5 l=1 m_j= 0.5)
     state # 10: atom   1 (Mo ), wfc  4 (j=1.5 l=1 m_j= 1.5)
     state # 11: atom   1 (Mo ), wfc  5 (j=0.5 l=1 m_j=-0.5)
     state # 12: atom   1 (Mo ), wfc  5 (j=0.5 l=1 m_j= 0.5)
     state # 13: atom   1 (Mo ), wfc  6 (j=1.5 l=1 m_j=-1.5)
     state # 14: atom   1 (Mo ), wfc  6 (j=1.5 l=1 m_j=-0.5)
     state # 15: atom   1 (Mo ), wfc  6 (j=1.5 l=1 m_j= 0.5)
     state # 16: atom   1 (Mo ), wfc  6 (j=1.5 l=1 m_j= 1.5)
     state # 17: atom   1 (Mo ), wfc  7 (j=1.5 l=2 m_j=-1.5)
     state # 18: atom   1 (Mo ), wfc  7 (j=1.5 l=2 m_j=-0.5)
     state # 19: atom   1 (Mo ), wfc  7 (j=1.5 l=2 m_j= 0.5)
     state # 20: atom   1 (Mo ), wfc  7 (j=1.5 l=2 m_j= 1.5)
     state # 21: atom   1 (Mo ), wfc  8 (j=2.5 l=2 m_j=-2.5)
     state # 22: atom   1 (Mo ), wfc  8 (j=2.5 l=2 m_j=-1.5)
     state # 23: atom   1 (Mo ), wfc  8 (j=2.5 l=2 m_j=-0.5)
     state # 24: atom   1 (Mo ), wfc  8 (j=2.5 l=2 m_j= 0.5)
     state # 25: atom   1 (Mo ), wfc  8 (j=2.5 l=2 m_j= 1.5)
     state # 26: atom   1 (Mo ), wfc  8 (j=2.5 l=2 m_j= 2.5)
     state # 27: atom   2 (S  ), wfc  1 (j=0.5 l=0 m_j=-0.5)
     state # 28: atom   2 (S  ), wfc  1 (j=0.5 l=0 m_j= 0.5)
     state # 29: atom   2 (S  ), wfc  2 (j=0.5 l=1 m_j=-0.5)
     state # 30: atom   2 (S  ), wfc  2 (j=0.5 l=1 m_j= 0.5)
     state # 31: atom   2 (S  ), wfc  3 (j=1.5 l=1 m_j=-1.5)
     state # 32: atom   2 (S  ), wfc  3 (j=1.5 l=1 m_j=-0.5)
     state # 33: atom   2 (S  ), wfc  3 (j=1.5 l=1 m_j= 0.5)
     state # 34: atom   2 (S  ), wfc  3 (j=1.5 l=1 m_j= 1.5)
     state # 35: atom   3 (S  ), wfc  1 (j=0.5 l=0 m_j=-0.5)
     state # 36: atom   3 (S  ), wfc  1 (j=0.5 l=0 m_j= 0.5)
     state # 37: atom   3 (S  ), wfc  2 (j=0.5 l=1 m_j=-0.5)
     state # 38: atom   3 (S  ), wfc  2 (j=0.5 l=1 m_j= 0.5)
     state # 39: atom   3 (S  ), wfc  3 (j=1.5 l=1 m_j=-1.5)
     state # 40: atom   3 (S  ), wfc  3 (j=1.5 l=1 m_j=-0.5)
     state # 41: atom   3 (S  ), wfc  3 (j=1.5 l=1 m_j= 0.5)
     state # 42: atom   3 (S  ), wfc  3 (j=1.5 l=1 m_j= 1.5)

 k =   0.0000000000  0.0000000000  0.0000000000
==== e(   1) =   -61.56852 eV ==== 
     psi = 0.479*[#  1]+0.479*[#  2]+0.009*[#  3]+0.009*[#  4]+0.003*[# 32]+
          +0.003*[# 33]+0.003*[# 40]+0.003*[# 41]+0.002*[# 29]+0.002*[# 30]+
          +0.002*[# 37]+0.002*[# 38]+0.001*[# 23]+0.001*[# 24]+
    |psi|^2 = 1.000
==== e(   2) =   -61.56851 eV ==== 
     psi = 0.479*[#  1]+0.479*[#  2]+0.009*[#  3]+0.009*[#  4]+0.003*[# 32]+
          +0.003*[# 33]+0.003*[# 40]+0.003*[# 41]+0.002*[# 29]+0.002*[# 30]+
          +0.002*[# 37]+0.002*[# 38]+0.001*[# 23]+0.001*[# 24]+
    |psi|^2 = 1.000
==== e(   3) =   -37.33397 eV ==== 
     psi = 0.483*[#  5]+0.483*[#  6]+0.009*[# 14]+0.009*[# 15]+0.003*[# 11]+
          +0.003*[# 12]+0.001*[#  8]+0.001*[#  9]+0.001*[# 29]+0.001*[# 30]+
          +0.001*[# 37]+0.001*[# 38]+
    |psi|^2 = 1.000
==== e(   4) =   -37.33397 eV ==== 
     psi = 0.483*[#  5]+0.483*[#  6]+0.009*[# 14]+0.009*[# 15]+0.003*[# 11]+
          +0.003*[# 12]+0.001*[#  8]+0.001*[#  9]+0.001*[# 29]+0.001*[# 30]+
          +0.001*[# 37]+0.001*[# 38]+
    |psi|^2 = 1.000
==== e(   5) =   -34.90926 eV ==== 
     psi = 0.482*[#  8]+0.482*[#  9]+0.010*[# 11]+0.010*[# 12]+0.002*[# 27]+
          +0.002*[# 28]+0.002*[# 32]+0.002*[# 33]+0.002*[# 35]+0.002*[# 36]+
          +0.002*[# 40]+0.002*[# 41]+0.001*[#  5]+0.001*[#  6]+
    |psi|^2 = 1.000
==== e(   6) =   -34.90926 eV ==== 
     psi = 0.482*[#  8]+0.482*[#  9]+0.010*[# 11]+0.010*[# 12]+0.002*[# 27]+
          +0.002*[# 28]+0.002*[# 32]+0.002*[# 33]+0.002*[# 35]+0.002*[# 36]+
          +0.002*[# 40]+0.002*[# 41]+0.001*[#  5]+0.001*[#  6]+
    |psi|^2 = 1.000
==== e(   7) =   -34.72009 eV ==== 
     psi = 0.482*[#  7]+0.482*[# 10]+0.017*[# 13]+0.017*[# 16]+
    |psi|^2 = 1.000
==== e(   8) =   -34.72009 eV ==== 
     psi = 0.482*[#  7]+0.482*[# 10]+0.017*[# 13]+0.017*[# 16]+
    |psi|^2 = 1.000
==== e(   9) =   -15.10957 eV ==== 
     psi = 0.202*[#  3]+0.202*[#  4]+0.140*[# 27]+0.140*[# 28]+0.140*[# 35]+
          +0.140*[# 36]+0.010*[#  1]+0.010*[#  2]+0.002*[# 32]+0.002*[# 33]+
          +0.002*[# 40]+0.002*[# 41]+0.001*[# 29]+0.001*[# 30]+0.001*[# 37]+
          +0.001*[# 38]+
    |psi|^2 = 0.999
==== e(  10) =   -15.10957 eV ==== 
     psi = 0.202*[#  3]+0.202*[#  4]+0.140*[# 27]+0.140*[# 28]+0.140*[# 35]+
          +0.140*[# 36]+0.010*[#  1]+0.010*[#  2]+0.002*[# 32]+0.002*[# 33]+
          +0.002*[# 40]+0.002*[# 41]+0.001*[# 29]+0.001*[# 30]+0.001*[# 37]+
          +0.001*[# 38]+
    |psi|^2 = 0.999
==== e(  11) =   -13.74744 eV ==== 
     psi = 0.151*[# 27]+0.151*[# 28]+0.151*[# 35]+0.151*[# 36]+0.121*[# 14]+
          +0.121*[# 15]+0.064*[# 11]+0.064*[# 12]+0.008*[#  8]+0.008*[#  9]+
          +0.003*[#  5]+0.003*[#  6]+
    |psi|^2 = 0.998
==== e(  12) =   -13.74743 eV ==== 
     psi = 0.151*[# 27]+0.151*[# 28]+0.151*[# 35]+0.151*[# 36]+0.121*[# 14]+
          +0.121*[# 15]+0.064*[# 11]+0.064*[# 12]+0.008*[#  8]+0.008*[#  9]+
          +0.003*[#  5]+0.003*[#  6]+
    |psi|^2 = 0.998
==== e(  13) =    -6.67037 eV ==== 
     psi = 0.103*[# 23]+0.103*[# 24]+0.087*[# 32]+0.087*[# 33]+0.087*[# 40]+
          +0.087*[# 41]+0.069*[# 18]+0.069*[# 19]+0.044*[# 29]+0.044*[# 30]+
          +0.044*[# 37]+0.044*[# 38]+0.017*[# 27]+0.017*[# 28]+0.017*[# 35]+
          +0.017*[# 36]+0.014*[#  3]+0.014*[#  4]+0.010*[#  1]+0.010*[#  2]+
    |psi|^2 = 0.984
==== e(  14) =    -6.67037 eV ==== 
     psi = 0.103*[# 23]+0.103*[# 24]+0.087*[# 32]+0.087*[# 33]+0.087*[# 40]+
          +0.087*[# 41]+0.069*[# 18]+0.069*[# 19]+0.044*[# 29]+0.044*[# 30]+
          +0.044*[# 37]+0.044*[# 38]+0.017*[# 27]+0.017*[# 28]+0.017*[# 35]+
          +0.017*[# 36]+0.014*[#  3]+0.014*[#  4]+0.010*[#  1]+0.010*[#  2]+
    |psi|^2 = 0.984
==== e(  15) =    -3.53468 eV ==== 
     psi = 0.286*[# 17]+0.286*[# 20]+0.075*[# 31]+0.075*[# 34]+0.075*[# 39]+
          +0.075*[# 42]+0.058*[# 22]+0.058*[# 25]+
    |psi|^2 = 0.991
==== e(  16) =    -3.53468 eV ==== 
     psi = 0.286*[# 17]+0.286*[# 20]+0.075*[# 31]+0.075*[# 34]+0.075*[# 39]+
          +0.075*[# 42]+0.058*[# 22]+0.058*[# 25]+
    |psi|^2 = 0.991
==== e(  17) =    -3.46738 eV ==== 
     psi = 0.333*[# 21]+0.333*[# 26]+0.060*[# 29]+0.060*[# 30]+0.060*[# 37]+
          +0.060*[# 38]+0.021*[# 32]+0.021*[# 33]+0.021*[# 40]+0.021*[# 41]+
    |psi|^2 = 0.991
==== e(  18) =    -3.46737 eV ==== 
     psi = 0.333*[# 21]+0.333*[# 26]+0.060*[# 29]+0.060*[# 30]+0.060*[# 37]+
          +0.060*[# 38]+0.021*[# 32]+0.021*[# 33]+0.021*[# 40]+0.021*[# 41]+
    |psi|^2 = 0.991
==== e(  19) =    -2.73562 eV ==== 
     psi = 0.164*[# 32]+0.164*[# 33]+0.164*[# 40]+0.164*[# 41]+0.075*[# 29]+
          +0.075*[# 30]+0.075*[# 37]+0.075*[# 38]+0.010*[# 14]+0.010*[# 15]+
          +0.003*[#  8]+0.003*[#  9]+0.003*[# 11]+0.003*[# 12]+0.001*[#  5]+
          +0.001*[#  6]+0.001*[# 21]+0.001*[# 26]+
    |psi|^2 = 0.994
==== e(  20) =    -2.73562 eV ==== 
     psi = 0.164*[# 32]+0.164*[# 33]+0.164*[# 40]+0.164*[# 41]+0.075*[# 29]+
          +0.075*[# 30]+0.075*[# 37]+0.075*[# 38]+0.010*[# 14]+0.010*[# 15]+
          +0.003*[#  8]+0.003*[#  9]+0.003*[# 11]+0.003*[# 12]+0.001*[#  5]+
          +0.001*[#  6]+0.001*[# 21]+0.001*[# 26]+
    |psi|^2 = 0.994
==== e(  21) =    -2.38263 eV ==== 
     psi = 0.189*[# 18]+0.189*[# 19]+0.099*[# 23]+0.099*[# 24]+0.073*[# 29]+
          +0.073*[# 30]+0.073*[# 37]+0.073*[# 38]+0.029*[# 32]+0.029*[# 33]+
          +0.029*[# 40]+0.029*[# 41]+
    |psi|^2 = 0.987
==== e(  22) =    -2.38263 eV ==== 
     psi = 0.189*[# 18]+0.189*[# 19]+0.099*[# 23]+0.099*[# 24]+0.073*[# 29]+
          +0.073*[# 30]+0.073*[# 37]+0.073*[# 38]+0.029*[# 32]+0.029*[# 33]+
          +0.029*[# 40]+0.029*[# 41]+
    |psi|^2 = 0.987
==== e(  23) =    -2.29642 eV ==== 
     psi = 0.238*[# 22]+0.238*[# 25]+0.103*[# 31]+0.103*[# 34]+0.103*[# 39]+
          +0.103*[# 42]+0.049*[# 17]+0.049*[# 20]+
    |psi|^2 = 0.987
==== e(  24) =    -2.29642 eV ==== 
     psi = 0.238*[# 22]+0.238*[# 25]+0.103*[# 31]+0.103*[# 34]+0.103*[# 39]+
          +0.103*[# 42]+0.049*[# 17]+0.049*[# 20]+
    |psi|^2 = 0.987
==== e(  25) =    -0.95668 eV ==== 
     psi = 0.188*[# 23]+0.188*[# 24]+0.105*[# 18]+0.105*[# 19]+0.068*[# 32]+
          +0.068*[# 33]+0.068*[# 40]+0.068*[# 41]+0.024*[# 29]+0.024*[# 30]+
          +0.024*[# 37]+0.024*[# 38]+0.003*[# 27]+0.003*[# 28]+0.003*[# 35]+
          +0.003*[# 36]+
    |psi|^2 = 0.970
==== e(  26) =    -0.95668 eV ==== 
     psi = 0.188*[# 23]+0.188*[# 24]+0.105*[# 18]+0.105*[# 19]+0.068*[# 32]+
          +0.068*[# 33]+0.068*[# 40]+0.068*[# 41]+0.024*[# 29]+0.024*[# 30]+
          +0.024*[# 37]+0.024*[# 38]+0.003*[# 27]+0.003*[# 28]+0.003*[# 35]+
          +0.003*[# 36]+
    |psi|^2 = 0.970
==== e(  27) =     1.97282 eV ==== 
     psi = 0.115*[# 18]+0.115*[# 19]+0.097*[# 29]+0.097*[# 30]+0.097*[# 37]+
          +0.097*[# 38]+0.083*[# 23]+0.083*[# 24]+0.046*[# 32]+0.046*[# 33]+
          +0.046*[# 40]+0.046*[# 41]+
    |psi|^2 = 0.969
==== e(  28) =     1.97282 eV ==== 
     psi = 0.115*[# 18]+0.115*[# 19]+0.097*[# 29]+0.097*[# 30]+0.097*[# 37]+
          +0.097*[# 38]+0.083*[# 23]+0.083*[# 24]+0.046*[# 32]+0.046*[# 33]+
          +0.046*[# 40]+0.046*[# 41]+
    |psi|^2 = 0.969
==== e(  29) =     2.05402 eV ==== 
     psi = 0.144*[# 31]+0.144*[# 34]+0.144*[# 39]+0.144*[# 42]+0.134*[# 22]+
          +0.134*[# 25]+0.062*[# 17]+0.062*[# 20]+
    |psi|^2 = 0.969
==== e(  30) =     2.05402 eV ==== 
     psi = 0.144*[# 31]+0.144*[# 34]+0.144*[# 39]+0.144*[# 42]+0.134*[# 22]+
          +0.134*[# 25]+0.062*[# 17]+0.062*[# 20]+
    |psi|^2 = 0.969
==== e(  31) =     2.28933 eV ==== 
     psi = 0.158*[# 21]+0.158*[# 26]+0.108*[# 29]+0.108*[# 30]+0.108*[# 37]+
          +0.108*[# 38]+0.057*[# 32]+0.057*[# 33]+0.057*[# 40]+0.057*[# 41]+
          +0.005*[# 11]+0.005*[# 12]+0.002*[# 14]+0.002*[# 15]+
    |psi|^2 = 0.989
==== e(  32) =     2.28933 eV ==== 
     psi = 0.158*[# 21]+0.158*[# 26]+0.108*[# 29]+0.108*[# 30]+0.108*[# 37]+
          +0.108*[# 38]+0.057*[# 32]+0.057*[# 33]+0.057*[# 40]+0.057*[# 41]+
          +0.005*[# 11]+0.005*[# 12]+0.002*[# 14]+0.002*[# 15]+
    |psi|^2 = 0.989
==== e(  33) =     2.29364 eV ==== 
     psi = 0.169*[# 31]+0.169*[# 34]+0.169*[# 39]+0.169*[# 42]+0.093*[# 17]+
          +0.093*[# 20]+0.058*[# 22]+0.058*[# 25]+0.005*[# 13]+0.005*[# 16]+
    |psi|^2 = 0.989
==== e(  34) =     2.29365 eV ==== 
     psi = 0.169*[# 31]+0.169*[# 34]+0.169*[# 39]+0.169*[# 42]+0.093*[# 17]+
          +0.093*[# 20]+0.058*[# 22]+0.058*[# 25]+0.005*[# 13]+0.005*[# 16]+
    |psi|^2 = 0.989

 k =   0.0000000000  0.0230940108  0.0000000000
==== e(   1) =   -61.56834 eV ==== 
     psi = 0.478*[#  1]+0.478*[#  2]+0.008*[#  3]+0.008*[#  4]+0.003*[# 32]+
          +0.003*[# 33]+0.003*[# 40]+0.003*[# 41]+0.002*[# 37]+0.002*[# 38]+
          +0.001*[# 29]+0.001*[# 30]+0.001*[# 23]+0.001*[# 24]+
    |psi|^2 = 1.000
==== e(   2) =   -61.56834 eV ==== 
     psi = 0.478*[#  1]+0.478*[#  2]+0.008*[#  3]+0.008*[#  4]+0.003*[# 40]+
          +0.003*[# 41]+0.003*[# 32]+0.003*[# 33]+0.002*[# 29]+0.002*[# 30]+
          +0.001*[# 37]+0.001*[# 38]+0.001*[# 23]+0.001*[# 24]+
    |psi|^2 = 1.000
==== e(   3) =   -37.33443 eV ==== 
     psi = 0.483*[#  5]+0.483*[#  6]+0.008*[# 14]+0.008*[# 15]+0.003*[# 11]+
          +0.003*[# 12]+0.001*[#  8]+0.001*[#  9]+0.001*[# 29]+0.001*[# 30]+
          +0.001*[# 37]+0.001*[# 38]+
    |psi|^2 = 1.000
==== e(   4) =   -37.33443 eV ==== 
     psi = 0.483*[#  5]+0.483*[#  6]+0.008*[# 14]+0.008*[# 15]+0.003*[# 11]+
          +0.003*[# 12]+0.001*[#  8]+0.001*[#  9]+0.001*[# 29]+0.001*[# 30]+
          +0.001*[# 37]+0.001*[# 38]+
    |psi|^2 = 1.000
==== e(   5) =   -34.90946 eV ==== 
     psi = 0.482*[#  8]+0.482*[#  9]+0.010*[# 11]+0.010*[# 12]+0.002*[# 32]+
          +0.002*[# 33]+0.002*[# 40]+0.002*[# 41]+0.002*[# 27]+0.002*[# 28]+
          +0.002*[# 35]+0.002*[# 36]+0.001*[#  5]+0.001*[#  6]+
    |psi|^2 = 1.000
==== e(   6) =   -34.90946 eV ==== 
     psi = 0.482*[#  8]+0.482*[#  9]+0.010*[# 11]+0.010*[# 12]+0.002*[# 27]+
          +0.002*[# 28]+0.002*[# 32]+0.002*[# 33]+0.002*[# 40]+0.002*[# 41]+
          +0.002*[# 35]+0.002*[# 36]+0.001*[#  5]+0.001*[#  6]+
    |psi|^2 = 1.000
==== e(   7) =   -34.72127 eV ==== 
     psi = 0.482*[#  7]+0.482*[# 10]+0.017*[# 13]+0.017*[# 16]+
    |psi|^2 = 1.000
==== e(   8) =   -34.72127 eV ==== 
     psi = 0.482*[#  7]+0.482*[# 10]+0.017*[# 13]+0.017*[# 16]+
    |psi|^2 = 1.000
==== e(   9) =   -15.10316 eV ==== 
     psi = 0.200*[#  3]+0.200*[#  4]+0.140*[# 35]+0.140*[# 36]+0.139*[# 27]+
          +0.139*[# 28]+0.010*[#  1]+0.010*[#  2]+0.003*[# 40]+0.003*[# 41]+
          +0.002*[# 32]+0.002*[# 33]+0.001*[# 29]+0.001*[# 30]+0.001*[# 13]+
          +0.001*[# 16]+
    |psi|^2 = 0.999
==== e(  10) =   -15.10316 eV ==== 
     psi = 0.200*[#  3]+0.200*[#  4]+0.140*[# 27]+0.140*[# 28]+0.139*[# 35]+
          +0.139*[# 36]+0.010*[#  1]+0.010*[#  2]+0.003*[# 32]+0.003*[# 33]+
          +0.002*[# 40]+0.002*[# 41]+0.001*[# 37]+0.001*[# 38]+0.001*[# 13]+
          +0.001*[# 16]+
    |psi|^2 = 0.999
==== e(  11) =   -13.74481 eV ==== 
     psi = 0.151*[# 27]+0.151*[# 28]+0.151*[# 35]+0.151*[# 36]+0.121*[# 14]+
          +0.121*[# 15]+0.064*[# 11]+0.064*[# 12]+0.008*[#  8]+0.008*[#  9]+
          +0.003*[#  5]+0.003*[#  6]+
    |psi|^2 = 0.998
==== e(  12) =   -13.74481 eV ==== 
     psi = 0.151*[# 27]+0.151*[# 28]+0.151*[# 35]+0.151*[# 36]+0.121*[# 14]+
          +0.121*[# 15]+0.064*[# 11]+0.064*[# 12]+0.008*[#  8]+0.008*[#  9]+
          +0.003*[#  5]+0.003*[#  6]+
    |psi|^2 = 0.998
==== e(  13) =    -6.66302 eV ==== 
     psi = 0.102*[# 23]+0.102*[# 24]+0.088*[# 40]+0.088*[# 41]+0.086*[# 32]+
          +0.086*[# 33]+0.069*[# 18]+0.069*[# 19]+0.045*[# 29]+0.045*[# 30]+
          +0.043*[# 37]+0.043*[# 38]+0.017*[# 27]+0.017*[# 28]+0.017*[# 35]+
          +0.017*[# 36]+0.014*[#  3]+0.014*[#  4]+0.010*[#  1]+0.010*[#  2]+
    |psi|^2 = 0.984
==== e(  14) =    -6.66302 eV ==== 
     psi = 0.102*[# 23]+0.102*[# 24]+0.088*[# 32]+0.088*[# 33]+0.086*[# 40]+
          +0.086*[# 41]+0.069*[# 18]+0.069*[# 19]+0.045*[# 37]+0.045*[# 38]+
          +0.043*[# 29]+0.043*[# 30]+0.017*[# 27]+0.017*[# 28]+0.017*[# 35]+
          +0.017*[# 36]+0.014*[#  3]+0.014*[#  4]+0.010*[#  1]+0.010*[#  2]+
    |psi|^2 = 0.984
==== e(  15) =    -3.54033 eV ==== 
     psi = 0.278*[# 17]+0.278*[# 20]+0.074*[# 31]+0.074*[# 34]+0.074*[# 39]+
          +0.074*[# 42]+0.056*[# 22]+0.056*[# 25]+0.008*[# 21]+0.008*[# 26]+
          +0.002*[# 37]+0.002*[# 38]+0.001*[# 29]+0.001*[# 30]+
    |psi|^2 = 0.991
==== e(  16) =    -3.54033 eV ==== 
     psi = 0.278*[# 17]+0.278*[# 20]+0.074*[# 31]+0.074*[# 34]+0.074*[# 39]+
          +0.074*[# 42]+0.056*[# 22]+0.056*[# 25]+0.008*[# 21]+0.008*[# 26]+
          +0.002*[# 29]+0.002*[# 30]+0.001*[# 37]+0.001*[# 38]+
    |psi|^2 = 0.991
==== e(  17) =    -3.46984 eV ==== 
     psi = 0.324*[# 21]+0.324*[# 26]+0.059*[# 29]+0.059*[# 30]+0.059*[# 37]+
          +0.059*[# 38]+0.020*[# 32]+0.020*[# 33]+0.020*[# 40]+0.020*[# 41]+
          +0.007*[# 17]+0.007*[# 20]+0.002*[# 31]+0.002*[# 34]+0.002*[# 39]+
          +0.002*[# 42]+0.001*[# 22]+0.001*[# 25]+
    |psi|^2 = 0.991
==== e(  18) =    -3.46984 eV ==== 
     psi = 0.324*[# 21]+0.324*[# 26]+0.059*[# 29]+0.059*[# 30]+0.059*[# 37]+
          +0.059*[# 38]+0.020*[# 32]+0.020*[# 33]+0.020*[# 40]+0.020*[# 41]+
          +0.007*[# 17]+0.007*[# 20]+0.002*[# 31]+0.002*[# 34]+0.002*[# 39]+
          +0.002*[# 42]+0.001*[# 22]+0.001*[# 25]+
    |psi|^2 = 0.991
==== e(  19) =    -2.78488 eV ==== 
     psi = 0.170*[# 40]+0.170*[# 41]+0.125*[# 32]+0.125*[# 33]+0.093*[# 29]+
          +0.093*[# 30]+0.047*[# 37]+0.047*[# 38]+0.013*[# 18]+0.013*[# 19]+
          +0.012*[# 22]+0.012*[# 25]+0.009*[# 14]+0.009*[# 15]+0.008*[# 23]+
          +0.008*[# 24]+0.004*[# 31]+0.004*[# 34]+0.004*[# 39]+0.004*[# 42]+
          +0.003*[# 11]+0.003*[# 12]+0.002*[#  8]+0.002*[#  9]+0.002*[# 17]+
          +0.002*[# 20]+0.001*[# 21]+0.001*[# 26]+
    |psi|^2 = 0.993
==== e(  20) =    -2.78488 eV ==== 
     psi = 0.170*[# 32]+0.170*[# 33]+0.125*[# 40]+0.125*[# 41]+0.093*[# 37]+
          +0.093*[# 38]+0.047*[# 29]+0.047*[# 30]+0.013*[# 18]+0.013*[# 19]+
          +0.012*[# 22]+0.012*[# 25]+0.009*[# 14]+0.009*[# 15]+0.008*[# 23]+
          +0.008*[# 24]+0.004*[# 39]+0.004*[# 42]+0.004*[# 31]+0.004*[# 34]+
          +0.003*[# 11]+0.003*[# 12]+0.002*[#  8]+0.002*[#  9]+0.002*[# 17]+
          +0.002*[# 20]+0.001*[# 21]+0.001*[# 26]+
    |psi|^2 = 0.993
==== e(  21) =    -2.37234 eV ==== 
     psi = 0.164*[# 18]+0.164*[# 19]+0.086*[# 29]+0.086*[# 30]+0.086*[# 23]+
          +0.086*[# 24]+0.049*[# 37]+0.049*[# 38]+0.049*[# 40]+0.049*[# 41]+
          +0.022*[# 22]+0.022*[# 25]+0.014*[# 32]+0.014*[# 33]+0.009*[# 31]+
          +0.009*[# 34]+0.009*[# 39]+0.009*[# 42]+0.005*[# 17]+0.005*[# 20]+
    |psi|^2 = 0.987
==== e(  22) =    -2.37234 eV ==== 
     psi = 0.164*[# 18]+0.164*[# 19]+0.086*[# 37]+0.086*[# 38]+0.086*[# 23]+
          +0.086*[# 24]+0.049*[# 29]+0.049*[# 30]+0.049*[# 32]+0.049*[# 33]+
          +0.022*[# 22]+0.022*[# 25]+0.014*[# 40]+0.014*[# 41]+0.009*[# 39]+
          +0.009*[# 42]+0.009*[# 31]+0.009*[# 34]+0.005*[# 17]+0.005*[# 20]+
    |psi|^2 = 0.987
==== e(  23) =    -2.27705 eV ==== 
     psi = 0.203*[# 22]+0.203*[# 25]+0.091*[# 39]+0.091*[# 42]+0.091*[# 31]+
          +0.091*[# 34]+0.042*[# 17]+0.042*[# 20]+0.019*[# 40]+0.019*[# 41]+
          +0.016*[# 29]+0.016*[# 30]+0.011*[# 18]+0.011*[# 19]+0.009*[# 32]+
          +0.009*[# 33]+0.006*[# 23]+0.006*[# 24]+0.005*[# 37]+0.005*[# 38]+
    |psi|^2 = 0.987
==== e(  24) =    -2.27705 eV ==== 
     psi = 0.203*[# 22]+0.203*[# 25]+0.091*[# 31]+0.091*[# 34]+0.091*[# 39]+
          +0.091*[# 42]+0.042*[# 17]+0.042*[# 20]+0.019*[# 32]+0.019*[# 33]+
          +0.016*[# 37]+0.016*[# 38]+0.011*[# 18]+0.011*[# 19]+0.009*[# 40]+
          +0.009*[# 41]+0.006*[# 23]+0.006*[# 24]+0.005*[# 29]+0.005*[# 30]+
    |psi|^2 = 0.987
==== e(  25) =    -0.95872 eV ==== 
     psi = 0.187*[# 23]+0.187*[# 24]+0.105*[# 18]+0.105*[# 19]+0.072*[# 32]+
          +0.072*[# 33]+0.065*[# 40]+0.065*[# 41]+0.026*[# 37]+0.026*[# 38]+
          +0.022*[# 29]+0.022*[# 30]+0.003*[# 27]+0.003*[# 28]+0.003*[# 35]+
          +0.003*[# 36]+
    |psi|^2 = 0.970
==== e(  26) =    -0.95872 eV ==== 
     psi = 0.187*[# 23]+0.187*[# 24]+0.105*[# 18]+0.105*[# 19]+0.072*[# 40]+
          +0.072*[# 41]+0.065*[# 32]+0.065*[# 33]+0.026*[# 29]+0.026*[# 30]+
          +0.022*[# 37]+0.022*[# 38]+0.003*[# 27]+0.003*[# 28]+0.003*[# 35]+
          +0.003*[# 36]+
    |psi|^2 = 0.970
==== e(  27) =     1.97175 eV ==== 
     psi = 0.113*[# 18]+0.113*[# 19]+0.094*[# 37]+0.094*[# 38]+0.094*[# 29]+
          +0.094*[# 30]+0.081*[# 23]+0.081*[# 24]+0.045*[# 32]+0.045*[# 33]+
          +0.045*[# 40]+0.045*[# 41]+0.003*[# 22]+0.003*[# 25]+0.003*[# 31]+
          +0.003*[# 34]+0.003*[# 39]+0.003*[# 42]+0.001*[# 17]+0.001*[# 20]+
    |psi|^2 = 0.969
==== e(  28) =     1.97175 eV ==== 
     psi = 0.113*[# 18]+0.113*[# 19]+0.094*[# 29]+0.094*[# 30]+0.094*[# 37]+
          +0.094*[# 38]+0.081*[# 23]+0.081*[# 24]+0.045*[# 40]+0.045*[# 41]+
          +0.045*[# 32]+0.045*[# 33]+0.003*[# 22]+0.003*[# 25]+0.003*[# 39]+
          +0.003*[# 42]+0.003*[# 31]+0.003*[# 34]+0.001*[# 17]+0.001*[# 20]+
    |psi|^2 = 0.969
==== e(  29) =     2.05510 eV ==== 
     psi = 0.141*[# 31]+0.141*[# 34]+0.140*[# 39]+0.140*[# 42]+0.129*[# 22]+
          +0.129*[# 25]+0.063*[# 17]+0.063*[# 20]+0.002*[# 18]+0.002*[# 19]+
          +0.002*[# 37]+0.002*[# 38]+0.002*[# 23]+0.002*[# 24]+0.002*[# 29]+
          +0.002*[# 30]+0.001*[# 32]+0.001*[# 33]+
    |psi|^2 = 0.969
==== e(  30) =     2.05510 eV ==== 
     psi = 0.141*[# 39]+0.141*[# 42]+0.140*[# 31]+0.140*[# 34]+0.129*[# 22]+
          +0.129*[# 25]+0.063*[# 17]+0.063*[# 20]+0.002*[# 18]+0.002*[# 19]+
          +0.002*[# 29]+0.002*[# 30]+0.002*[# 23]+0.002*[# 24]+0.002*[# 37]+
          +0.002*[# 38]+0.001*[# 40]+0.001*[# 41]+
    |psi|^2 = 0.969
==== e(  31) =     2.26998 eV ==== 
     psi = 0.100*[# 21]+0.100*[# 26]+0.074*[# 29]+0.074*[# 30]+0.063*[# 37]+
          +0.063*[# 38]+0.061*[# 31]+0.061*[# 34]+0.061*[# 39]+0.061*[# 42]+
          +0.039*[# 40]+0.039*[# 41]+0.033*[# 17]+0.033*[# 20]+0.033*[# 32]+
          +0.033*[# 33]+0.023*[# 22]+0.023*[# 25]+0.003*[# 11]+0.003*[# 12]+
          +0.002*[# 13]+0.002*[# 16]+0.001*[# 14]+0.001*[# 15]+
    |psi|^2 = 0.988
==== e(  32) =     2.26998 eV ==== 
     psi = 0.100*[# 21]+0.100*[# 26]+0.074*[# 37]+0.074*[# 38]+0.063*[# 29]+
          +0.063*[# 30]+0.061*[# 39]+0.061*[# 42]+0.061*[# 31]+0.061*[# 34]+
          +0.039*[# 32]+0.039*[# 33]+0.033*[# 17]+0.033*[# 20]+0.033*[# 40]+
          +0.033*[# 41]+0.023*[# 22]+0.023*[# 25]+0.003*[# 11]+0.003*[# 12]+
          +0.002*[# 13]+0.002*[# 16]+0.001*[# 14]+0.001*[# 15]+
    |psi|^2 = 0.988
==== e(  33) =     2.28454 eV ==== 
     psi = 0.107*[# 31]+0.107*[# 34]+0.107*[# 39]+0.107*[# 42]+0.059*[# 17]+
          +0.059*[# 20]+0.058*[# 21]+0.058*[# 26]+0.040*[# 29]+0.040*[# 30]+
          +0.039*[# 37]+0.039*[# 38]+0.037*[# 22]+0.037*[# 25]+0.021*[# 32]+
          +0.021*[# 33]+0.021*[# 40]+0.021*[# 41]+0.004*[# 13]+0.004*[# 16]+
          +0.002*[# 11]+0.002*[# 12]+
    |psi|^2 = 0.989
==== e(  34) =     2.28454 eV ==== 
     psi = 0.107*[# 39]+0.107*[# 42]+0.107*[# 31]+0.107*[# 34]+0.059*[# 17]+
          +0.059*[# 20]+0.058*[# 21]+0.058*[# 26]+0.040*[# 37]+0.040*[# 38]+
          +0.039*[# 29]+0.039*[# 30]+0.037*[# 22]+0.037*[# 25]+0.021*[# 32]+
          +0.021*[# 33]+0.021*[# 40]+0.021*[# 41]+0.004*[# 13]+0.004*[# 16]+
          +0.002*[# 11]+0.002*[# 12]+
    |psi|^2 = 0.989

Lowdin Charges: 

     Atom #   1: total charge =  14.4516, s, p, d, f =   2.3037  7.0219  5.1260
     Atom #   2: total charge =   5.7039, s, p, d, f =   1.5737  4.1302  0.0000
     Atom #   3: total charge =   5.7039, s, p, d, f =   1.5737  4.1302  0.0000
     Spilling Parameter:   0.0054
 
     PROJWFC      :  7m10.04s CPU    16m37.83s WALL

 
   This run was terminated on:  14:20:11  16Mar2015            

=------------------------------------------------------------------------------=
   JOB DONE.
=------------------------------------------------------------------------------=
